============================== echo of input deck ==============================
echo
title "total energy of benzene, B3LYP/3-21G"

start c6h6-b3lyp

geometry
 C    0.99261000     0.99261000     0.00000000
 C   -1.35593048     0.36332048     0.00000000
 C    0.36332048    -1.35593048     0.00000000
 C   -0.99261000    -0.99261000     0.00000000
 C    1.35593048    -0.36332048     0.00000000
 C   -0.36332048     1.35593048     0.00000000
 H    1.75792000     1.75792000     0.00000000
 H   -2.40136338     0.64344338     0.00000000
 H    0.64344338    -2.40136338     0.00000000
 H   -1.75792000    -1.75792000     0.00000000
 H    2.40136338    -0.64344338     0.00000000
 H   -0.64344338     2.40136338     0.00000000
end

basis
* library 3-21G
end

dft
  xc b3lyp
end

task dft energy
task dft optimize
task dft freq
================================================================================

         Total DFT energy =     -230.975522722193
         Total DFT energy =   -230.975522722193
@ Step       Energy      Delta E   Gmax     Grms     Xrms     Xmax   Walltime
@ ---- ---------------- -------- -------- -------- -------- -------- --------
@    0    -230.97552272  0.0D+00  0.00609  0.00206  0.00000  0.00000      1.5
         Total DFT energy =     -230.975757869052

 Vector   16  Occ=2.000000D+00  E=-4.261764D-01  Symmetry=e1u

 Vector   17  Occ=2.000000D+00  E=-3.663396D-01  Symmetry=a2u

 Vector   18  Occ=2.000000D+00  E=-3.461387D-01  Symmetry=e2g

 Vector   19  Occ=2.000000D+00  E=-3.461387D-01  Symmetry=e2g

 Vector   20  Occ=2.000000D+00  E=-2.511208D-01  Symmetry=e1g

 Vector   21  Occ=2.000000D+00  E=-2.511208D-01  Symmetry=e1g

 Vector   22  Occ=0.000000D+00  E= 5.351730D-03  Symmetry=e2u

 Vector   23  Occ=0.000000D+00  E= 5.351730D-03  Symmetry=e2u

 Vector   24  Occ=0.000000D+00  E= 1.065307D-01  Symmetry=a1g

 Vector   25  Occ=0.000000D+00  E= 1.643530D-01  Symmetry=e1u

 Vector   26  Occ=0.000000D+00  E= 1.643530D-01  Symmetry=e1u

 Vector   27  Occ=0.000000D+00  E= 1.657436D-01  Symmetry=b2g

 Vector   28  Occ=0.000000D+00  E= 2.066887D-01  Symmetry=e2g

 Vector   29  Occ=0.000000D+00  E= 2.066887D-01  Symmetry=e2g

 Vector   30  Occ=0.000000D+00  E= 2.127479D-01  Symmetry=b1u

 Vector   31  Occ=0.000000D+00  E= 3.247831D-01  Symmetry=e2g

 Vector   32  Occ=0.000000D+00  E= 3.247831D-01  Symmetry=e2g

 Vector   33  Occ=0.000000D+00  E= 3.374664D-01  Symmetry=e1u

 Vector   34  Occ=0.000000D+00  E= 3.374664D-01  Symmetry=e1u

 Vector   35  Occ=0.000000D+00  E= 5.774363D-01  Symmetry=b1u

         Total DFT energy =   -230.975757869052
@    1    -230.97575787 -2.4D-04  0.00039  0.00013  0.00661  0.01253      2.8
         Total DFT energy =     -230.975758778687

 Vector    6  Occ=2.000000D+00  E=-1.012550D+01  Symmetry=a1g

 Vector    7  Occ=2.000000D+00  E=-8.555105D-01  Symmetry=a1g

 Vector    8  Occ=2.000000D+00  E=-7.462050D-01  Symmetry=e1u

 Vector    9  Occ=2.000000D+00  E=-7.462050D-01  Symmetry=e1u

 Vector   10  Occ=2.000000D+00  E=-6.047947D-01  Symmetry=e2g

 Vector   11  Occ=2.000000D+00  E=-6.047947D-01  Symmetry=e2g

 Vector   12  Occ=2.000000D+00  E=-5.283707D-01  Symmetry=a1g

 Vector   13  Occ=2.000000D+00  E=-4.606519D-01  Symmetry=b1u

 Vector   14  Occ=2.000000D+00  E=-4.527128D-01  Symmetry=b2u

 Vector   15  Occ=2.000000D+00  E=-4.261338D-01  Symmetry=e1u

 Vector   16  Occ=2.000000D+00  E=-4.261338D-01  Symmetry=e1u

 Vector   17  Occ=2.000000D+00  E=-3.662007D-01  Symmetry=a2u

 Vector   18  Occ=2.000000D+00  E=-3.461516D-01  Symmetry=e2g

 Vector   19  Occ=2.000000D+00  E=-3.461516D-01  Symmetry=e2g

 Vector   20  Occ=2.000000D+00  E=-2.510664D-01  Symmetry=e1g

 Vector   21  Occ=2.000000D+00  E=-2.510664D-01  Symmetry=e1g

 Vector   22  Occ=0.000000D+00  E= 5.258059D-03  Symmetry=e2u

 Vector   23  Occ=0.000000D+00  E= 5.258059D-03  Symmetry=e2u

 Vector   24  Occ=0.000000D+00  E= 1.065194D-01  Symmetry=a1g

 Vector   25  Occ=0.000000D+00  E= 1.643283D-01  Symmetry=e1u

 Vector   26  Occ=0.000000D+00  E= 1.643283D-01  Symmetry=e1u

 Vector   27  Occ=0.000000D+00  E= 1.655261D-01  Symmetry=b2g

 Vector   28  Occ=0.000000D+00  E= 2.065630D-01  Symmetry=e2g

 Vector   29  Occ=0.000000D+00  E= 2.065630D-01  Symmetry=e2g

 Vector   30  Occ=0.000000D+00  E= 2.126115D-01  Symmetry=b1u

 Vector   31  Occ=0.000000D+00  E= 3.245797D-01  Symmetry=e2g

 Vector   32  Occ=0.000000D+00  E= 3.245797D-01  Symmetry=e2g

 Vector   33  Occ=0.000000D+00  E= 3.372177D-01  Symmetry=e1u

 Vector   34  Occ=0.000000D+00  E= 3.372177D-01  Symmetry=e1u

 Vector   35  Occ=0.000000D+00  E= 5.768928D-01  Symmetry=b1u

         Total DFT energy =   -230.975758778687
@    2    -230.97575878 -9.1D-07  0.00001  0.00000  0.00050  0.00092      4.0
@    2    -230.97575878 -9.1D-07  0.00001  0.00000  0.00050  0.00092      4.0

 Output coordinates in angstroms (scale by  1.889725989 to convert to a.u.)

  No.       Tag          Charge          X              Y              Z
 ---- ---------------- ---------- -------------- -------------- --------------
    1 C                    6.0000     0.98804779     0.98804779     0.00000000
    2 C                    6.0000    -1.34969838     0.36165059     0.00000000
    3 C                    6.0000     0.36165059    -1.34969838     0.00000000
    4 C                    6.0000    -0.98804779    -0.98804779     0.00000000
    5 C                    6.0000     1.34969838    -0.36165059     0.00000000
    6 C                    6.0000    -0.36165059     1.34969838     0.00000000
    7 H                    1.0000     1.75464691     1.75464691     0.00000000
    8 H                    1.0000    -2.39689225     0.64224534     0.00000000
    9 H                    1.0000     0.64224534    -2.39689225     0.00000000
   10 H                    1.0000    -1.75464691    -1.75464691     0.00000000
   11 H                    1.0000     2.39689225    -0.64224534     0.00000000
   12 H                    1.0000    -0.64224534     2.39689225     0.00000000

         Total DFT energy =     -230.975763933054

                       DFT Final Molecular Orbital Analysis
                       ------------------------------------

 Vector    6  Occ=2.000000D+00  E=-1.012550D+01

 Vector    7  Occ=2.000000D+00  E=-8.555134D-01

 Vector    8  Occ=2.000000D+00  E=-7.462046D-01

 Vector    9  Occ=2.000000D+00  E=-7.462041D-01

 Vector   10  Occ=2.000000D+00  E=-6.047945D-01

 Vector   11  Occ=2.000000D+00  E=-6.047945D-01

 Vector   12  Occ=2.000000D+00  E=-5.283727D-01

 Vector   13  Occ=2.000000D+00  E=-4.606507D-01

 Vector   14  Occ=2.000000D+00  E=-4.527127D-01

 Vector   15  Occ=2.000000D+00  E=-4.261330D-01

 Vector   16  Occ=2.000000D+00  E=-4.261323D-01

 Vector   17  Occ=2.000000D+00  E=-3.662012D-01

 Vector   18  Occ=2.000000D+00  E=-3.461512D-01

 Vector   19  Occ=2.000000D+00  E=-3.461512D-01

 Vector   20  Occ=2.000000D+00  E=-2.510668D-01

 Vector   21  Occ=2.000000D+00  E=-2.510658D-01

 Vector   22  Occ=0.000000D+00  E= 5.258105D-03

 Vector   23  Occ=0.000000D+00  E= 5.258135D-03

 Vector   24  Occ=0.000000D+00  E= 1.065153D-01

 Vector   25  Occ=0.000000D+00  E= 1.643301D-01

 Vector   26  Occ=0.000000D+00  E= 1.643308D-01

 Vector   27  Occ=0.000000D+00  E= 1.655263D-01

 Vector   28  Occ=0.000000D+00  E= 2.065620D-01

 Vector   29  Occ=0.000000D+00  E= 2.065620D-01

 Vector   30  Occ=0.000000D+00  E= 2.126142D-01

 Vector   31  Occ=0.000000D+00  E= 3.245797D-01

 Vector   32  Occ=0.000000D+00  E= 3.245802D-01

 Vector   33  Occ=0.000000D+00  E= 3.372206D-01

 Vector   34  Occ=0.000000D+00  E= 3.372216D-01

 Vector   35  Occ=0.000000D+00  E= 5.768908D-01

     Multipole analysis of the density
     ---------------------------------

     L   x y z        total         alpha         beta         nuclear
     -   - - -        -----         -----         ----         -------
     0   0 0 0      0.000000    -21.000000    -21.000000     42.000000

     1   1 0 0      0.000000      0.000000      0.000000      0.000000
     1   0 1 0      0.000000      0.000000      0.000000      0.000000
     1   0 0 1      0.000000      0.000000      0.000000      0.000000

     2   2 0 0    -23.187540   -107.329180   -107.329180    191.470820
     2   1 1 0      0.000001      0.000000      0.000000      0.000000
     2   1 0 1      0.000000      0.000000      0.000000      0.000000
     2   0 2 0    -23.187540   -107.329180   -107.329180    191.470820
     2   0 1 1      0.000000      0.000000      0.000000      0.000000

 Zero-Point correction to Energy  =   63.770 kcal/mol  (  0.101624 au)
 Thermal correction to Energy     =   66.466 kcal/mol  (  0.105921 au)
 Thermal correction to Enthalpy   =   67.058 kcal/mol  (  0.106864 au)
 Total Entropy                    =   63.788 cal/mol-K
   - Translational                =   38.962 cal/mol-K (mol. weight =  78.0469)
   - Rotational                   =   20.715 cal/mol-K (symmetry #  =       12)
   - Vibrational                  =    4.111 cal/mol-K
   - Translational                  =    2.979 cal/mol-K
   - Rotational                     =    2.979 cal/mol-K
   - Vibrational                    =   10.684 cal/mol-K
 P.Frequency        0.00        0.00        0.00        0.00        0.00        0.00
 P.Frequency      423.21      423.21      647.70      647.70      698.90      754.40
 P.Frequency      878.14      878.14     1007.88     1007.88     1014.91     1048.30
 P.Frequency     1064.35     1068.86     1068.87     1228.18     1238.03     1238.03
 P.Frequency     1316.59     1436.66     1540.30     1540.30     1627.24     1627.24
 P.Frequency     3182.97     3191.71     3191.71     3208.18     3208.18     3221.46

 Normal Eigenvalue ||           Projected Infra Red Intensities
  Mode   [cm**-1]  || [atomic units] [(debye/angs)**2] [(KM/mol)] [arbitrary]
 ------ ---------- || -------------- ----------------- ---------- -----------
    1        0.000 ||    0.000000           0.000         0.000       0.000
    2        0.000 ||    0.000000           0.000         0.000       0.000
    3        0.000 ||    0.000000           0.000         0.000       0.000
    4        0.000 ||    0.000000           0.000         0.000       0.000
    5        0.000 ||    0.000000           0.000         0.000       0.000
    6        0.000 ||    0.000000           0.000         0.000       0.000
    7      423.207 ||    0.000000           0.000         0.000       0.000
    8      423.212 ||    0.000000           0.000         0.000       0.000
    9      647.701 ||    0.000000           0.000         0.000       0.000
   10      647.704 ||    0.000000           0.000         0.000       0.000
   11      698.897 ||    0.120602           2.782       117.569     195.465
   12      754.398 ||    0.000000           0.000         0.000       0.000
   13      878.136 ||    0.000000           0.000         0.000       0.000
   14      878.141 ||    0.000000           0.000         0.000       0.000
   15     1007.877 ||    0.000000           0.000         0.000       0.000
   16     1007.878 ||    0.000000           0.000         0.000       0.000
   17     1014.906 ||    0.000000           0.000         0.000       0.000
   18     1048.301 ||    0.000000           0.000         0.000       0.000
   19     1064.353 ||    0.000000           0.000         0.000       0.000
   20     1068.864 ||    0.004133           0.095         4.029       6.698
   21     1068.874 ||    0.004133           0.095         4.029       6.698
   22     1228.183 ||    0.000000           0.000         0.000       0.000
   23     1238.025 ||    0.000000           0.000         0.000       0.000
   24     1238.026 ||    0.000000           0.000         0.000       0.000
   25     1316.586 ||    0.000000           0.000         0.000       0.000
   26     1436.664 ||    0.000000           0.000         0.000       0.000
   27     1540.297 ||    0.012006           0.277        11.704      19.459
   28     1540.300 ||    0.012006           0.277        11.704      19.458
   29     1627.244 ||    0.000000           0.000         0.000       0.000
   30     1627.245 ||    0.000000           0.000         0.000       0.000
   31     3182.973 ||    0.000000           0.000         0.000       0.000
   32     3191.711 ||    0.000000           0.000         0.000       0.000
   33     3191.711 ||    0.000000           0.000         0.000       0.000
   34     3208.175 ||    0.034621           0.799        33.750      56.112
   35     3208.181 ||    0.034621           0.799        33.750      56.111
   36     3221.461 ||    0.000000           0.000         0.000       0.000
 ----------------------------------------------------------------------------

 Total times  cpu:      225.7s     wall:      235.7s
