============================== echo of input deck ==============================
title "cnh2o_ccsd_t_cc_pvdz"
echo
start cnh2o_ccsd_t_cc_pvdz.nw

permanent_dir /dtemp/kowalski

memory stack 900 mb heap 100 mb global 1100 mb noverify

geometry units bohr noautoz
N       0.193533   1.637705   0.000000
H       0.288822  -1.764435   0.000000
O       0.090544  -3.623970   0.000000
H      -1.711022  -3.804092   0.000000
C      -0.113453   3.845317   0.000000
end

basis spherical
* library cc-pvdz
end

scf
thresh 1.0e-10
tol2e 1.0e-10
doublet
rohf
end

tce
freeze atomic
ccsd(t)
maxiter 100
tilesize 15
diis 5
lshift 0.2
thresh 1.0d-5
2eorb
2emet 13
attilesize 40
end

task tce energy

================================================================================

 Output coordinates in a.u. (scale by  1.000000000 to convert to a.u.)

  No.       Tag          Charge          X              Y              Z
 ---- ---------------- ---------- -------------- -------------- --------------
    1 N                    7.0000    -0.19520276    -1.63869271     0.00000000
    2 H                    1.0000    -0.28917665     1.76348387     0.00000000
    3 O                    8.0000    -0.09017985     3.62294209     0.00000000
    4 H                    1.0000     1.71145564     3.80236767     0.00000000
    5 C                    6.0000     0.11092986    -3.84642321     0.00000000

         Total SCF energy =   -168.218348163178

 Vector    2  Occ=2.000000D+00  E=-1.566193D+01  Symmetry=a'

 Vector    3  Occ=2.000000D+00  E=-1.139231D+01  Symmetry=a'

 Vector    4  Occ=2.000000D+00  E=-1.296417D+00  Symmetry=a'

 Vector    5  Occ=2.000000D+00  E=-1.270676D+00  Symmetry=a'

 Vector    6  Occ=2.000000D+00  E=-7.030417D-01  Symmetry=a'

 Vector    7  Occ=2.000000D+00  E=-6.226724D-01  Symmetry=a'

 Vector    8  Occ=2.000000D+00  E=-5.366341D-01  Symmetry=a'

 Vector    9  Occ=2.000000D+00  E=-5.336428D-01  Symmetry=a"

 Vector   10  Occ=2.000000D+00  E=-5.244903D-01  Symmetry=a'

 Vector   11  Occ=2.000000D+00  E=-4.566186D-01  Symmetry=a"

 Vector   12  Occ=1.000000D+00  E=-3.634906D-01  Symmetry=a'

 Vector   13  Occ=0.000000D+00  E= 1.470988D-01  Symmetry=a'

 Vector   14  Occ=0.000000D+00  E= 1.485351D-01  Symmetry=a"

 Vector   15  Occ=0.000000D+00  E= 2.293292D-01  Symmetry=a'

 Vector   16  Occ=0.000000D+00  E= 3.519021D-01  Symmetry=a'

 Vector   17  Occ=0.000000D+00  E= 4.004714D-01  Symmetry=a'

 Vector   18  Occ=0.000000D+00  E= 6.330065D-01  Symmetry=a'

 Vector   19  Occ=0.000000D+00  E= 6.333268D-01  Symmetry=a"

 Vector   20  Occ=0.000000D+00  E= 6.821580D-01  Symmetry=a'

 Vector   21  Occ=0.000000D+00  E= 7.235589D-01  Symmetry=a'

 Vector   22  Occ=0.000000D+00  E= 8.546649D-01  Symmetry=a'

       Multipole analysis of the density wrt the origin
       ------------------------------------------------

     L   x y z        total         open         nuclear
     -   - - -        -----         ----         -------
     0   0 0 0      0.000000     -1.000000     23.000000

     1   1 0 0      0.669866     -0.183704      0.000000
     1   0 1 0     -1.786975      4.398534      0.000000
     1   0 0 1      0.000000      0.000000      0.000000

     2   2 0 0    -11.881230     -0.782624      3.418324
     2   1 1 0      2.123501      0.920927      3.062937
     2   1 0 1      0.000000      0.000000      0.000000
     2   0 2 0    -10.889640    -21.031778    230.140576
     2   0 1 1      0.000000      0.000000      0.000000

 CCSD total energy / hartree       =      -168.714411047263100
 CCSD(T) total energy / hartree       =      -168.732631159084800
 Total times  cpu:       22.0s     wall:       29.1s
