============================== echo of input deck ==============================
title "h2o_dimer_cc_pvdz"
echo
start h2o_dimer_cc_pvdz

permanent_dir /dtemp/kowalski

memory stack 900 mb heap 100 mb global 1100 mb noverify

geometry units angstrom
O    0.0000000   0.00000000  0.00000000
O   -0.2953673   0.00000000  2.90144000
H    0.0000000   0.00000000  0.97287010
H    0.9351134   0.00000000 -0.23780130
H   -0.8267692  -0.76271270  3.16656200
H   -0.8267692   0.76271270  3.16656200
end

basis spherical
* library aug-cc-pvdz
end

scf
thresh 1.0e-10
tol2e 1.0e-10
singlet
rhf
end

tce
freeze atomic
ccsd
tilesize 20
diis 10
thresh 1.0d-5
2eorb
2emet 13
nroots 1
eomsol 2
symmetry
targetsym a'
end

task tce energy

================================================================================

 Output coordinates in angstroms (scale by  1.889725989 to convert to a.u.)

  No.       Tag          Charge          X              Y              Z
 ---- ---------------- ---------- -------------- -------------- --------------
    1 O                    8.0000     0.06909268    -1.52023542     0.00000000
    2 O                    8.0000    -0.06321222     1.39319750     0.00000000
    3 H                    1.0000    -0.07324266    -0.55783379     0.00000000
    4 H                    1.0000    -0.82116710    -1.89228924     0.00000000
    5 H                    1.0000     0.42368302     1.73321320    -0.76271270
    6 H                    1.0000     0.42368302     1.73321320     0.76271270

         Total SCF energy =   -152.087423663834

 Vector    2  Occ=2.000000D+00  E=-2.054714D+01  Symmetry=a'

 Vector    3  Occ=2.000000D+00  E=-1.379639D+00  Symmetry=a'

 Vector    4  Occ=2.000000D+00  E=-1.321792D+00  Symmetry=a'

 Vector    5  Occ=2.000000D+00  E=-7.387720D-01  Symmetry=a"

 Vector    6  Occ=2.000000D+00  E=-6.916182D-01  Symmetry=a'

 Vector    7  Occ=2.000000D+00  E=-6.141783D-01  Symmetry=a'

 Vector    8  Occ=2.000000D+00  E=-5.588620D-01  Symmetry=a'

 Vector    9  Occ=2.000000D+00  E=-5.297903D-01  Symmetry=a'

 Vector   10  Occ=2.000000D+00  E=-4.798720D-01  Symmetry=a"

 Vector   11  Occ=0.000000D+00  E= 2.814303D-02  Symmetry=a'

 Vector   12  Occ=0.000000D+00  E= 5.524699D-02  Symmetry=a"

 Vector   13  Occ=0.000000D+00  E= 5.591254D-02  Symmetry=a'

 Vector   14  Occ=0.000000D+00  E= 9.139298D-02  Symmetry=a'

 Vector   15  Occ=0.000000D+00  E= 1.577129D-01  Symmetry=a'

 Vector   16  Occ=0.000000D+00  E= 1.845063D-01  Symmetry=a'

 Vector   17  Occ=0.000000D+00  E= 2.111632D-01  Symmetry=a"

 Vector   18  Occ=0.000000D+00  E= 2.143631D-01  Symmetry=a'

 Vector   19  Occ=0.000000D+00  E= 2.271412D-01  Symmetry=a"

 Vector   20  Occ=0.000000D+00  E= 2.371690D-01  Symmetry=a'

 Vector   21  Occ=0.000000D+00  E= 2.609070D-01  Symmetry=a'

 Vector   22  Occ=0.000000D+00  E= 2.832306D-01  Symmetry=a"

 Vector   23  Occ=0.000000D+00  E= 2.950970D-01  Symmetry=a'

 Vector   24  Occ=0.000000D+00  E= 3.323104D-01  Symmetry=a'

 Vector   25  Occ=0.000000D+00  E= 3.500360D-01  Symmetry=a'

 Vector   26  Occ=0.000000D+00  E= 3.637071D-01  Symmetry=a"

 Vector   27  Occ=0.000000D+00  E= 3.812480D-01  Symmetry=a'

 Vector   28  Occ=0.000000D+00  E= 4.408053D-01  Symmetry=a"

 Vector   29  Occ=0.000000D+00  E= 4.555869D-01  Symmetry=a'

 Vector   30  Occ=0.000000D+00  E= 4.854951D-01  Symmetry=a'

 Vector   31  Occ=0.000000D+00  E= 5.248386D-01  Symmetry=a'

       Multipole analysis of the density wrt the origin
       ------------------------------------------------

     L   x y z        total         open         nuclear
     -   - - -        -----         ----         -------
     0   0 0 0      0.000000      0.000000     20.000000

     1   1 0 0     -0.023053      0.000000      0.000000
     1   0 1 0      1.066521      0.000000      0.000000
     1   0 0 1      0.000000      0.000000      0.000000

     2   2 0 0     -9.103927      0.000000      3.959779
     2   1 1 0      4.890675      0.000000      5.422929
     2   1 0 1      0.000000      0.000000      0.000000
     2   0 2 0     -8.660224      0.000000    156.830121
     2   0 1 1      0.000000      0.000000      0.000000

 CCSD total energy / hartree       =      -152.545218940061100
 Total times  cpu:       60.0s     wall:       66.4s
