============================== echo of input deck ==============================
title "h2o_dimer_ccsdt_cc_pvdz"
echo
start h2o_dimer_ccsdt_cc_pvdz

permanent_dir /dtemp/kowalski

memory stack 900 mb heap 100 mb global 1100 mb noverify

geometry units angstrom
O    0.0000000   0.00000000  0.00000000
O   -0.2953673   0.00000000  2.90144000
H    0.0000000   0.00000000  0.97287010
H    0.9351134   0.00000000 -0.23780130
H   -0.8267692  -0.76271270  3.16656200
H   -0.8267692   0.76271270  3.16656200
end

basis spherical
* library cc-pvdz
end

scf
thresh 1.0e-10
tol2e 1.0e-10
singlet
rhf
end

tce
freeze atomic
ccsdt
maxiter 100
tilesize 10
diis 3
thresh 1.0d-2
2eorb
2emet 13
attilesize 40
end

task tce energy

================================================================================

 Output coordinates in angstroms (scale by  1.889725989 to convert to a.u.)

  No.       Tag          Charge          X              Y              Z
 ---- ---------------- ---------- -------------- -------------- --------------
    1 O                    8.0000     0.06909268    -1.52023542     0.00000000
    2 O                    8.0000    -0.06321222     1.39319750     0.00000000
    3 H                    1.0000    -0.07324266    -0.55783379     0.00000000
    4 H                    1.0000    -0.82116710    -1.89228924     0.00000000
    5 H                    1.0000     0.42368302     1.73321320    -0.76271270
    6 H                    1.0000     0.42368302     1.73321320     0.76271270

         Total SCF energy =   -152.061484228312

 Vector    2  Occ=2.000000D+00  E=-2.051679D+01  Symmetry=a'

 Vector    3  Occ=2.000000D+00  E=-1.365174D+00  Symmetry=a'

 Vector    4  Occ=2.000000D+00  E=-1.298860D+00  Symmetry=a'

 Vector    5  Occ=2.000000D+00  E=-7.246649D-01  Symmetry=a"

 Vector    6  Occ=2.000000D+00  E=-6.698134D-01  Symmetry=a'

 Vector    7  Occ=2.000000D+00  E=-5.991158D-01  Symmetry=a'

 Vector    8  Occ=2.000000D+00  E=-5.408741D-01  Symmetry=a'

 Vector    9  Occ=2.000000D+00  E=-5.142044D-01  Symmetry=a'

 Vector   10  Occ=2.000000D+00  E=-4.610738D-01  Symmetry=a"

 Vector   11  Occ=0.000000D+00  E= 1.625098D-01  Symmetry=a'

 Vector   12  Occ=0.000000D+00  E= 2.302203D-01  Symmetry=a'

 Vector   13  Occ=0.000000D+00  E= 2.391181D-01  Symmetry=a"

 Vector   14  Occ=0.000000D+00  E= 3.785650D-01  Symmetry=a'

 Vector   15  Occ=0.000000D+00  E= 7.530875D-01  Symmetry=a"

 Vector   16  Occ=0.000000D+00  E= 8.033685D-01  Symmetry=a'

 Vector   17  Occ=0.000000D+00  E= 8.393119D-01  Symmetry=a'

 Vector   18  Occ=0.000000D+00  E= 8.604555D-01  Symmetry=a'

 Vector   19  Occ=0.000000D+00  E= 1.127735D+00  Symmetry=a'

 Vector   20  Occ=0.000000D+00  E= 1.201795D+00  Symmetry=a'

       Multipole analysis of the density wrt the origin
       ------------------------------------------------

     L   x y z        total         open         nuclear
     -   - - -        -----         ----         -------
     0   0 0 0      0.000000      0.000000     20.000000

     1   1 0 0     -0.018671      0.000000      0.000000
     1   0 1 0      1.104315      0.000000      0.000000
     1   0 0 1      0.000000      0.000000      0.000000

     2   2 0 0     -8.574313      0.000000      3.959779
     2   1 1 0      4.843865      0.000000      5.422929
     2   1 0 1      0.000000      0.000000      0.000000
     2   0 2 0     -8.161846      0.000000    156.830121
     2   0 1 1      0.000000      0.000000      0.000000

 Total times  cpu:       97.3s     wall:      118.8s
