============================== echo of input deck ==============================
start tce_h2o_eomccsdt_cc-pvdz

permanent_dir /dtemp/kowalski

memory stack 900 mb heap 100 mb global 1100 mb noverify

echo

geometry units bohr
symmetry c1
H    1.474611052297904   0.000000000000000   0.863401706825835
O    0.000000000000000   0.000000000000000  -0.215850436155089
H   -1.474611052297904   0.000000000000000   0.863401706825835
end

basis
* library cc-pvdz
end

scf
thresh 1.0e-12
tol2e 0.0e-10
singlet
rhf
end

tce
ccsdt
dipole
freeze core atomic
thresh 1.0d-6
nroots 1
end

task tce energy

================================================================================

 Output coordinates in a.u. (scale by  1.000000000 to convert to a.u.)

  No.       Tag          Charge          X              Y              Z
 ---- ---------------- ---------- -------------- -------------- --------------
    1 H                    1.0000     1.47461105     0.00000000     0.86340171
    2 O                    8.0000     0.00000000     0.00000000    -0.21585043
    3 H                    1.0000    -1.47461105     0.00000000     0.86340171

         Total SCF energy =    -76.026118370437

 Vector    2  Occ=2.000000D+00  E=-1.329644D+00

 Vector    3  Occ=2.000000D+00  E=-7.000111D-01

 Vector    4  Occ=2.000000D+00  E=-5.587758D-01

 Vector    5  Occ=2.000000D+00  E=-4.916525D-01

 Vector    6  Occ=0.000000D+00  E= 1.821789D-01

 Vector    7  Occ=0.000000D+00  E= 2.543443D-01

 Vector    8  Occ=0.000000D+00  E= 7.931245D-01

 Vector    9  Occ=0.000000D+00  E= 8.310032D-01

 Vector   10  Occ=0.000000D+00  E= 1.158714D+00

 Vector   11  Occ=0.000000D+00  E= 1.200754D+00

 Vector   12  Occ=0.000000D+00  E= 1.250360D+00

 Vector   13  Occ=0.000000D+00  E= 1.446064D+00

 Vector   14  Occ=0.000000D+00  E= 1.464044D+00

 Vector   15  Occ=0.000000D+00  E= 1.689139D+00

       Multipole analysis of the density wrt the origin
       ------------------------------------------------

     L   x y z        total         open         nuclear
     -   - - -        -----         ----         -------
     0   0 0 0      0.000000      0.000000     10.000000

     1   1 0 0      0.000000      0.000000      0.000000
     1   0 1 0      0.000000      0.000000      0.000000
     1   0 0 1      0.793953      0.000000      0.000000

     2   2 0 0     -2.955053      0.000000      4.348956
     2   1 1 0      0.000000      0.000000      0.000000
     2   1 0 1      0.000000      0.000000      0.000000
     2   0 2 0     -5.247995      0.000000      0.000000
     2   0 1 1      0.000000      0.000000      0.000000

 Total times  cpu:      183.5s     wall:      221.4s
