============================== echo of input deck ==============================
echo
title "tutorial to demonstrate charge-density fitting"

start acr-cdfit

geometry units bohr
C         -3.4889915040            0.0757243564            0.0000000000
C         -1.1660674990           -0.8921396346            0.0000000000
C          1.0745076249            0.7531195619            0.0000000000
O          3.2306456355           -0.0048697519            0.0000000000
H         -5.1598072439           -1.1007803728            0.0000000000
H         -3.7843301456            2.1030589485            0.0000000000
H         -0.8202431053           -2.9101405740            0.0000000000
H          0.6573804135            2.8079130427            0.0000000000
end

basis spherical
 * library 6-31G
end

basis "cd basis"
*  library "DGauss A2 DFT Coulomb Fitting"
end

dft
 xc xpbe96 cpbe96
end
task dft energy
================================================================================

 Output coordinates in a.u. (scale by  1.000000000 to convert to a.u.)

  No.       Tag          Charge          X              Y              Z
 ---- ---------------- ---------- -------------- -------------- --------------
    1 C                    6.0000     0.25763286     3.32137763     0.00000000
    2 C                    6.0000    -0.84664484     1.06011528     0.00000000
    3 C                    6.0000     0.66247352    -1.27432608     0.00000000
    4 O                    8.0000    -0.22238340    -3.38157718     0.00000000
    5 H                    1.0000    -0.81743964     5.05919457     0.00000000
    6 H                    1.0000     2.29894170     3.49564380     0.00000000
    7 H                    1.0000    -2.88163854     0.83489769     0.00000000
    8 H                    1.0000     2.73843448    -0.98011961     0.00000000

         Total DFT energy =     -191.624658050849

                       DFT Final Molecular Orbital Analysis
                       ------------------------------------

 Vector    4  Occ=2.000000D+00  E=-9.914737D+00  Symmetry=a'

 Vector    5  Occ=2.000000D+00  E=-9.816756D-01  Symmetry=a'

 Vector    6  Occ=2.000000D+00  E=-7.356469D-01  Symmetry=a'

 Vector    7  Occ=2.000000D+00  E=-5.873955D-01  Symmetry=a'

 Vector    8  Occ=2.000000D+00  E=-5.193270D-01  Symmetry=a'

 Vector    9  Occ=2.000000D+00  E=-4.321326D-01  Symmetry=a'

 Vector   10  Occ=2.000000D+00  E=-4.225493D-01  Symmetry=a'

 Vector   11  Occ=2.000000D+00  E=-3.656050D-01  Symmetry=a"

 Vector   12  Occ=2.000000D+00  E=-3.620996D-01  Symmetry=a'

 Vector   13  Occ=2.000000D+00  E=-3.481076D-01  Symmetry=a'

 Vector   14  Occ=2.000000D+00  E=-2.648760D-01  Symmetry=a"

 Vector   15  Occ=2.000000D+00  E=-2.050912D-01  Symmetry=a'

 Vector   16  Occ=0.000000D+00  E=-9.596533D-02  Symmetry=a"

 Vector   17  Occ=0.000000D+00  E= 1.842700D-02  Symmetry=a"

 Vector   18  Occ=0.000000D+00  E= 8.442645D-02  Symmetry=a'

 Vector   19  Occ=0.000000D+00  E= 8.850517D-02  Symmetry=a'

 Vector   20  Occ=0.000000D+00  E= 1.286544D-01  Symmetry=a'

 Vector   21  Occ=0.000000D+00  E= 1.627881D-01  Symmetry=a'

 Vector   22  Occ=0.000000D+00  E= 2.362689D-01  Symmetry=a'

 Vector   23  Occ=0.000000D+00  E= 2.806797D-01  Symmetry=a'

 Vector   24  Occ=0.000000D+00  E= 3.220592D-01  Symmetry=a'

 Vector   25  Occ=0.000000D+00  E= 4.682304D-01  Symmetry=a"

 Vector   26  Occ=0.000000D+00  E= 4.938504D-01  Symmetry=a'

 Vector   27  Occ=0.000000D+00  E= 5.472138D-01  Symmetry=a"

     Multipole analysis of the density
     ---------------------------------

     L   x y z        total         alpha         beta         nuclear
     -   - - -        -----         -----         ----         -------
     0   0 0 0      0.000000    -15.000000    -15.000000     30.000000

     1   1 0 0      0.199512      0.099756      0.099756      0.000000
     1   0 1 0      1.228616      0.614308      0.614308      0.000000
     1   0 0 1      0.000000      0.000000      0.000000      0.000000

     2   2 0 0    -16.105352    -22.794756    -22.794756     29.484160
     2   1 1 0     -0.636091     -0.073329     -0.073329     -0.489433
     2   1 0 1      0.000000      0.000000      0.000000      0.000000
     2   0 2 0    -19.828459   -116.728721   -116.728721    213.628982
     2   0 1 1      0.000000      0.000000      0.000000      0.000000

 Total times  cpu:        3.6s     wall:        4.4s
