============================== echo of input deck ==============================
echo
title "total energy of benzene using various functionals"

start c6h6

geometry
 C    0.99261000     0.99261000     0.00000000
 C   -1.35593048     0.36332048     0.00000000
 C    0.36332048    -1.35593048     0.00000000
 C   -0.99261000    -0.99261000     0.00000000
 C    1.35593048    -0.36332048     0.00000000
 C   -0.36332048     1.35593048     0.00000000
 H    1.75792000     1.75792000     0.00000000
 H   -2.40136338     0.64344338     0.00000000
 H    0.64344338    -2.40136338     0.00000000
 H   -1.75792000    -1.75792000     0.00000000
 H    2.40136338    -0.64344338     0.00000000
 H   -0.64344338     2.40136338     0.00000000
end

basis
* library 3-21G
end

dft
  xc hfexch
end
task dft energy

dft
  xc b3lyp
end
task dft energy

dft
  xc pbe0
end
task dft energy

dft
  xc xpbe96 cpbe96
end
task dft energy
================================================================================

 Output coordinates in angstroms (scale by  1.889725989 to convert to a.u.)

  No.       Tag          Charge          X              Y              Z
 ---- ---------------- ---------- -------------- -------------- --------------
    1 C                    6.0000     0.99261000     0.99261000     0.00000000
    2 C                    6.0000    -1.35593048     0.36332048     0.00000000
    3 C                    6.0000     0.36332048    -1.35593048     0.00000000
    4 C                    6.0000    -0.99261000    -0.99261000     0.00000000
    5 C                    6.0000     1.35593048    -0.36332048     0.00000000
    6 C                    6.0000    -0.36332048     1.35593048     0.00000000
    7 H                    1.0000     1.75792000     1.75792000     0.00000000
    8 H                    1.0000    -2.40136338     0.64344338     0.00000000
    9 H                    1.0000     0.64344338    -2.40136338     0.00000000
   10 H                    1.0000    -1.75792000    -1.75792000     0.00000000
   11 H                    1.0000     2.40136338    -0.64344338     0.00000000
   12 H                    1.0000    -0.64344338     2.40136338     0.00000000

         Total DFT energy =     -229.416773384959
         Total DFT energy =     -230.975522722241

 Vector   16  Occ=2.000000D+00  E=-4.258447D-01  Symmetry=e1u

 Vector   17  Occ=2.000000D+00  E=-3.639418D-01  Symmetry=a2u

 Vector   18  Occ=2.000000D+00  E=-3.466067D-01  Symmetry=e2g

 Vector   19  Occ=2.000000D+00  E=-3.466067D-01  Symmetry=e2g

 Vector   20  Occ=2.000000D+00  E=-2.501367D-01  Symmetry=e1g

 Vector   21  Occ=2.000000D+00  E=-2.501367D-01  Symmetry=e1g

 Vector   22  Occ=0.000000D+00  E= 3.850314D-03  Symmetry=e2u

 Vector   23  Occ=0.000000D+00  E= 3.850314D-03  Symmetry=e2u

 Vector   24  Occ=0.000000D+00  E= 1.075825D-01  Symmetry=a1g

 Vector   25  Occ=0.000000D+00  E= 1.621727D-01  Symmetry=b2g

 Vector   26  Occ=0.000000D+00  E= 1.650624D-01  Symmetry=e1u

 Vector   27  Occ=0.000000D+00  E= 1.650624D-01  Symmetry=e1u

 Vector   28  Occ=0.000000D+00  E= 2.053488D-01  Symmetry=e2g

 Vector   29  Occ=0.000000D+00  E= 2.053488D-01  Symmetry=e2g

 Vector   30  Occ=0.000000D+00  E= 2.116516D-01  Symmetry=b1u

 Vector   31  Occ=0.000000D+00  E= 3.217240D-01  Symmetry=e2g

 Vector   32  Occ=0.000000D+00  E= 3.217240D-01  Symmetry=e2g

 Vector   33  Occ=0.000000D+00  E= 3.331762D-01  Symmetry=e1u

 Vector   34  Occ=0.000000D+00  E= 3.331762D-01  Symmetry=e1u

 Vector   35  Occ=0.000000D+00  E= 5.685785D-01  Symmetry=b1u

         Total DFT energy =     -230.691307673707

 Vector    6  Occ=2.000000D+00  E=-1.018048D+01  Symmetry=a1g

 Vector    7  Occ=2.000000D+00  E=-8.795873D-01  Symmetry=a1g

 Vector    8  Occ=2.000000D+00  E=-7.687910D-01  Symmetry=e1u

 Vector    9  Occ=2.000000D+00  E=-7.687910D-01  Symmetry=e1u

 Vector   10  Occ=2.000000D+00  E=-6.239309D-01  Symmetry=e2g

 Vector   11  Occ=2.000000D+00  E=-6.239309D-01  Symmetry=e2g

 Vector   12  Occ=2.000000D+00  E=-5.441819D-01  Symmetry=a1g

 Vector   13  Occ=2.000000D+00  E=-4.770605D-01  Symmetry=b1u

 Vector   14  Occ=2.000000D+00  E=-4.662932D-01  Symmetry=b2u

 Vector   15  Occ=2.000000D+00  E=-4.389556D-01  Symmetry=e1u

 Vector   16  Occ=2.000000D+00  E=-4.389556D-01  Symmetry=e1u

 Vector   17  Occ=2.000000D+00  E=-3.796169D-01  Symmetry=a2u

 Vector   18  Occ=2.000000D+00  E=-3.574705D-01  Symmetry=e2g

 Vector   19  Occ=2.000000D+00  E=-3.574705D-01  Symmetry=e2g

 Vector   20  Occ=2.000000D+00  E=-2.617455D-01  Symmetry=e1g

 Vector   21  Occ=2.000000D+00  E=-2.617455D-01  Symmetry=e1g

 Vector   22  Occ=0.000000D+00  E= 7.885922D-03  Symmetry=e2u

 Vector   23  Occ=0.000000D+00  E= 7.885922D-03  Symmetry=e2u

 Vector   24  Occ=0.000000D+00  E= 1.176708D-01  Symmetry=a1g

 Vector   25  Occ=0.000000D+00  E= 1.715666D-01  Symmetry=b2g

 Vector   26  Occ=0.000000D+00  E= 1.779556D-01  Symmetry=e1u

 Vector   27  Occ=0.000000D+00  E= 1.779556D-01  Symmetry=e1u

 Vector   28  Occ=0.000000D+00  E= 2.177552D-01  Symmetry=e2g

 Vector   29  Occ=0.000000D+00  E= 2.177552D-01  Symmetry=e2g

 Vector   30  Occ=0.000000D+00  E= 2.255787D-01  Symmetry=b1u

 Vector   31  Occ=0.000000D+00  E= 3.297854D-01  Symmetry=e2g

 Vector   32  Occ=0.000000D+00  E= 3.297854D-01  Symmetry=e2g

 Vector   33  Occ=0.000000D+00  E= 3.400318D-01  Symmetry=e1u

 Vector   34  Occ=0.000000D+00  E= 3.400318D-01  Symmetry=e1u

 Vector   35  Occ=0.000000D+00  E= 5.824969D-01  Symmetry=a2g

         Total DFT energy =     -230.663097227798

                       DFT Final Molecular Orbital Analysis
                       ------------------------------------

 Vector    6  Occ=2.000000D+00  E=-9.838642D+00  Symmetry=a1g

 Vector    7  Occ=2.000000D+00  E=-7.757056D-01  Symmetry=a1g

 Vector    8  Occ=2.000000D+00  E=-6.737749D-01  Symmetry=e1u

 Vector    9  Occ=2.000000D+00  E=-6.737749D-01  Symmetry=e1u

 Vector   10  Occ=2.000000D+00  E=-5.436928D-01  Symmetry=e2g

 Vector   11  Occ=2.000000D+00  E=-5.436928D-01  Symmetry=e2g

 Vector   12  Occ=2.000000D+00  E=-4.738083D-01  Symmetry=a1g

 Vector   13  Occ=2.000000D+00  E=-4.095862D-01  Symmetry=b1u

 Vector   14  Occ=2.000000D+00  E=-4.012085D-01  Symmetry=b2u

 Vector   15  Occ=2.000000D+00  E=-3.762279D-01  Symmetry=e1u

 Vector   16  Occ=2.000000D+00  E=-3.762279D-01  Symmetry=e1u

 Vector   17  Occ=2.000000D+00  E=-3.239892D-01  Symmetry=a2u

 Vector   18  Occ=2.000000D+00  E=-3.009715D-01  Symmetry=e2g

 Vector   19  Occ=2.000000D+00  E=-3.009715D-01  Symmetry=e2g

 Vector   20  Occ=2.000000D+00  E=-2.222262D-01  Symmetry=e1g

 Vector   21  Occ=2.000000D+00  E=-2.222262D-01  Symmetry=e1g

 Vector   22  Occ=0.000000D+00  E=-2.509315D-02  Symmetry=e2u

 Vector   23  Occ=0.000000D+00  E=-2.509315D-02  Symmetry=e2u

 Vector   24  Occ=0.000000D+00  E= 8.098278D-02  Symmetry=a1g

 Vector   25  Occ=0.000000D+00  E= 1.192028D-01  Symmetry=b2g

 Vector   26  Occ=0.000000D+00  E= 1.374835D-01  Symmetry=e1u

 Vector   27  Occ=0.000000D+00  E= 1.374835D-01  Symmetry=e1u

 Vector   28  Occ=0.000000D+00  E= 1.763098D-01  Symmetry=e2g

 Vector   29  Occ=0.000000D+00  E= 1.763098D-01  Symmetry=e2g

 Vector   30  Occ=0.000000D+00  E= 1.842783D-01  Symmetry=b1u

 Vector   31  Occ=0.000000D+00  E= 2.848034D-01  Symmetry=e2g

 Vector   32  Occ=0.000000D+00  E= 2.848034D-01  Symmetry=e2g

 Vector   33  Occ=0.000000D+00  E= 2.950835D-01  Symmetry=e1u

 Vector   34  Occ=0.000000D+00  E= 2.950835D-01  Symmetry=e1u

 Vector   35  Occ=0.000000D+00  E= 5.205660D-01  Symmetry=b1u

     Multipole analysis of the density
     ---------------------------------

     L   x y z        total         alpha         beta         nuclear
     -   - - -        -----         -----         ----         -------
     0   0 0 0      0.000000    -21.000000    -21.000000     42.000000

     1   1 0 0      0.000000      0.000000      0.000000      0.000000
     1   0 1 0      0.000000      0.000000      0.000000      0.000000
     1   0 0 1      0.000000      0.000000      0.000000      0.000000

     2   2 0 0    -22.968119   -107.923477   -107.923477    192.878835
     2   1 1 0      0.000000      0.000000      0.000000      0.000000
     2   1 0 1      0.000000      0.000000      0.000000      0.000000
     2   0 2 0    -22.968119   -107.923477   -107.923477    192.878835
     2   0 1 1      0.000000      0.000000      0.000000      0.000000

 Total times  cpu:        2.2s     wall:        3.7s
