============================== echo of input deck ==============================
echo

title "demonstrate the use of multiplicity"

start o2

geometry units angstrom
O        0.0000000000      0.0000000000      0.60066850000
O        0.0000000000      0.0000000000     -0.60066850000
symmetry c1
end

basis
 * library 6-31G*
end

# as triplet
dft
 xc b3lyp
 odft
 mult 3
 iterations 100
end
task dft energy

# as singlet
dft
 xc b3lyp
 odft
 mult 1
 iterations 100
end
task dft energy
================================================================================

 Output coordinates in angstroms (scale by  1.889725989 to convert to a.u.)

  No.       Tag          Charge          X              Y              Z
 ---- ---------------- ---------- -------------- -------------- --------------
    1 O                    8.0000     0.00000000     0.00000000     0.60066850
    2 O                    8.0000     0.00000000     0.00000000    -0.60066850

         Total DFT energy =     -150.319773095015

 Vector    1  Occ=1.000000D+00  E=-1.931081D+01

 Vector    2  Occ=1.000000D+00  E=-1.931062D+01

 Vector    3  Occ=1.000000D+00  E=-1.312383D+00

 Vector    4  Occ=1.000000D+00  E=-8.338446D-01

 Vector    5  Occ=1.000000D+00  E=-5.638098D-01

 Vector    6  Occ=1.000000D+00  E=-5.638098D-01

 Vector    7  Occ=1.000000D+00  E=-5.492901D-01

 Vector    8  Occ=1.000000D+00  E=-3.038803D-01

 Vector    9  Occ=1.000000D+00  E=-3.038803D-01

 Vector   10  Occ=0.000000D+00  E= 2.137255D-01

 Vector   11  Occ=0.000000D+00  E= 6.693763D-01

 Vector   12  Occ=0.000000D+00  E= 7.096442D-01

 Vector   13  Occ=0.000000D+00  E= 7.759878D-01

 Vector   14  Occ=0.000000D+00  E= 7.759878D-01

 Vector   15  Occ=0.000000D+00  E= 8.516538D-01

 Vector   16  Occ=0.000000D+00  E= 8.959227D-01

 Vector   17  Occ=0.000000D+00  E= 8.959227D-01

 Vector   18  Occ=0.000000D+00  E= 1.279705D+00

 Vector   19  Occ=0.000000D+00  E= 1.492892D+00

 Vector    1  Occ=1.000000D+00  E=-1.928147D+01

 Vector    2  Occ=1.000000D+00  E=-1.928115D+01

 Vector    3  Occ=1.000000D+00  E=-1.255018D+00

 Vector    4  Occ=1.000000D+00  E=-7.452729D-01

 Vector    5  Occ=1.000000D+00  E=-5.091883D-01

 Vector    6  Occ=1.000000D+00  E=-4.616756D-01

 Vector    7  Occ=1.000000D+00  E=-4.616756D-01

 Vector    8  Occ=0.000000D+00  E=-1.082199D-01

 Vector    9  Occ=0.000000D+00  E=-1.082199D-01

 Vector   10  Occ=0.000000D+00  E= 2.579549D-01

 Vector   11  Occ=0.000000D+00  E= 6.879718D-01

 Vector   12  Occ=0.000000D+00  E= 7.277243D-01

 Vector   13  Occ=0.000000D+00  E= 8.312038D-01

 Vector   14  Occ=0.000000D+00  E= 8.312038D-01

 Vector   15  Occ=0.000000D+00  E= 8.636546D-01

 Vector   16  Occ=0.000000D+00  E= 9.540625D-01

 Vector   17  Occ=0.000000D+00  E= 9.540625D-01

 Vector   18  Occ=0.000000D+00  E= 1.307555D+00

 Vector   19  Occ=0.000000D+00  E= 1.526622D+00

         Total DFT energy =     -150.257102908365

                    DFT Final Alpha Molecular Orbital Analysis
                    ------------------------------------------

 Vector    1  Occ=1.000000D+00  E=-1.930582D+01

 Vector    2  Occ=1.000000D+00  E=-1.930556D+01

 Vector    3  Occ=1.000000D+00  E=-1.288762D+00

 Vector    4  Occ=1.000000D+00  E=-7.936973D-01

 Vector    5  Occ=1.000000D+00  E=-5.333907D-01

 Vector    6  Occ=1.000000D+00  E=-5.206495D-01

 Vector    7  Occ=1.000000D+00  E=-5.124338D-01

 Vector    8  Occ=1.000000D+00  E=-2.454173D-01

 Vector    9  Occ=0.000000D+00  E=-1.743350D-01

 Vector   10  Occ=0.000000D+00  E= 2.312275D-01

 Vector   11  Occ=0.000000D+00  E= 6.766562D-01

 Vector   12  Occ=0.000000D+00  E= 7.161769D-01

 Vector   13  Occ=0.000000D+00  E= 7.911207D-01

 Vector   14  Occ=0.000000D+00  E= 8.086812D-01

 Vector   15  Occ=0.000000D+00  E= 8.550661D-01

 Vector   16  Occ=0.000000D+00  E= 9.155891D-01

 Vector   17  Occ=0.000000D+00  E= 9.272611D-01

 Vector   18  Occ=0.000000D+00  E= 1.291186D+00

 Vector    1  Occ=1.000000D+00  E=-1.930582D+01

 Vector    2  Occ=1.000000D+00  E=-1.930556D+01

 Vector    3  Occ=1.000000D+00  E=-1.288762D+00

 Vector    4  Occ=1.000000D+00  E=-7.936973D-01

 Vector    5  Occ=1.000000D+00  E=-5.333907D-01

 Vector    6  Occ=1.000000D+00  E=-5.206495D-01

 Vector    7  Occ=1.000000D+00  E=-5.124338D-01

 Vector    8  Occ=1.000000D+00  E=-2.454173D-01

 Vector    9  Occ=0.000000D+00  E=-1.743350D-01

 Vector   10  Occ=0.000000D+00  E= 2.312275D-01

 Vector   11  Occ=0.000000D+00  E= 6.766562D-01

 Vector   12  Occ=0.000000D+00  E= 7.161769D-01

 Vector   13  Occ=0.000000D+00  E= 7.911208D-01

 Vector   14  Occ=0.000000D+00  E= 8.086812D-01

 Vector   15  Occ=0.000000D+00  E= 8.550661D-01

 Vector   16  Occ=0.000000D+00  E= 9.155891D-01

 Vector   17  Occ=0.000000D+00  E= 9.272611D-01

 Vector   18  Occ=0.000000D+00  E= 1.291186D+00

     Multipole analysis of the density
     ---------------------------------

     L   x y z        total         alpha         beta         nuclear
     -   - - -        -----         -----         ----         -------
     0   0 0 0      0.000000     -8.000000     -8.000000     16.000000

     1   1 0 0      0.000000      0.000000      0.000000      0.000000
     1   0 1 0      0.000000      0.000000      0.000000      0.000000
     1   0 0 1      0.000000      0.000000      0.000000      0.000000

     2   2 0 0     -6.933900     -3.467829     -3.466071      0.000000
     2   1 1 0     -0.531523     -0.266367     -0.265156      0.000000
     2   1 0 1      0.000000      0.000000      0.000000      0.000000
     2   0 2 0     -7.666627     -3.832435     -3.834192      0.000000
     2   0 1 1      0.000000      0.000000      0.000000      0.000000

 Total times  cpu:        3.4s     wall:        4.9s
