============================== echo of input deck ==============================
echo
title "total energy of benzene using various functionals"

start c6h6

geometry
 C    0.99261000     0.99261000     0.00000000
 C   -1.35593048     0.36332048     0.00000000
 C    0.36332048    -1.35593048     0.00000000
 C   -0.99261000    -0.99261000     0.00000000
 C    1.35593048    -0.36332048     0.00000000
 C   -0.36332048     1.35593048     0.00000000
 H    1.75792000     1.75792000     0.00000000
 H   -2.40136338     0.64344338     0.00000000
 H    0.64344338    -2.40136338     0.00000000
 H   -1.75792000    -1.75792000     0.00000000
 H    2.40136338    -0.64344338     0.00000000
 H   -0.64344338     2.40136338     0.00000000
end

basis
* library 3-21G
end

dft
  xc b3lyp
end
task dft energy
================================================================================

 Output coordinates in angstroms (scale by  1.889725989 to convert to a.u.)

  No.       Tag          Charge          X              Y              Z
 ---- ---------------- ---------- -------------- -------------- --------------
    1 C                    6.0000     0.99261000     0.99261000     0.00000000
    2 C                    6.0000    -1.35593048     0.36332048     0.00000000
    3 C                    6.0000     0.36332048    -1.35593048     0.00000000
    4 C                    6.0000    -0.99261000    -0.99261000     0.00000000
    5 C                    6.0000     1.35593048    -0.36332048     0.00000000
    6 C                    6.0000    -0.36332048     1.35593048     0.00000000
    7 H                    1.0000     1.75792000     1.75792000     0.00000000
    8 H                    1.0000    -2.40136338     0.64344338     0.00000000
    9 H                    1.0000     0.64344338    -2.40136338     0.00000000
   10 H                    1.0000    -1.75792000    -1.75792000     0.00000000
   11 H                    1.0000     2.40136338    -0.64344338     0.00000000
   12 H                    1.0000    -0.64344338     2.40136338     0.00000000

         Total DFT energy =     -230.975522722192

                       DFT Final Molecular Orbital Analysis
                       ------------------------------------

 Vector    6  Occ=2.000000D+00  E=-1.012684D+01  Symmetry=a1g

 Vector    7  Occ=2.000000D+00  E=-8.521221D-01  Symmetry=a1g

 Vector    8  Occ=2.000000D+00  E=-7.447206D-01  Symmetry=e1u

 Vector    9  Occ=2.000000D+00  E=-7.447206D-01  Symmetry=e1u

 Vector   10  Occ=2.000000D+00  E=-6.043780D-01  Symmetry=e2g

 Vector   11  Occ=2.000000D+00  E=-6.043780D-01  Symmetry=e2g

 Vector   12  Occ=2.000000D+00  E=-5.272458D-01  Symmetry=a1g

 Vector   13  Occ=2.000000D+00  E=-4.627398D-01  Symmetry=b1u

 Vector   14  Occ=2.000000D+00  E=-4.507899D-01  Symmetry=b2u

 Vector   15  Occ=2.000000D+00  E=-4.258447D-01  Symmetry=e1u

 Vector   16  Occ=2.000000D+00  E=-4.258447D-01  Symmetry=e1u

 Vector   17  Occ=2.000000D+00  E=-3.639419D-01  Symmetry=a2u

 Vector   18  Occ=2.000000D+00  E=-3.466067D-01  Symmetry=e2g

 Vector   19  Occ=2.000000D+00  E=-3.466067D-01  Symmetry=e2g

 Vector   20  Occ=2.000000D+00  E=-2.501368D-01  Symmetry=e1g

 Vector   21  Occ=2.000000D+00  E=-2.501368D-01  Symmetry=e1g

 Vector   22  Occ=0.000000D+00  E= 3.850269D-03  Symmetry=e2u

 Vector   23  Occ=0.000000D+00  E= 3.850269D-03  Symmetry=e2u

 Vector   24  Occ=0.000000D+00  E= 1.075825D-01  Symmetry=a1g

 Vector   25  Occ=0.000000D+00  E= 1.621726D-01  Symmetry=b2g

 Vector   26  Occ=0.000000D+00  E= 1.650624D-01  Symmetry=e1u

 Vector   27  Occ=0.000000D+00  E= 1.650624D-01  Symmetry=e1u

 Vector   28  Occ=0.000000D+00  E= 2.053488D-01  Symmetry=e2g

 Vector   29  Occ=0.000000D+00  E= 2.053488D-01  Symmetry=e2g

 Vector   30  Occ=0.000000D+00  E= 2.116516D-01  Symmetry=b1u

 Vector   31  Occ=0.000000D+00  E= 3.217240D-01  Symmetry=e2g

 Vector   32  Occ=0.000000D+00  E= 3.217240D-01  Symmetry=e2g

 Vector   33  Occ=0.000000D+00  E= 3.331762D-01  Symmetry=e1u

 Vector   34  Occ=0.000000D+00  E= 3.331762D-01  Symmetry=e1u

 Vector   35  Occ=0.000000D+00  E= 5.685785D-01  Symmetry=b1u

     Multipole analysis of the density
     ---------------------------------

     L   x y z        total         alpha         beta         nuclear
     -   - - -        -----         -----         ----         -------
     0   0 0 0      0.000000    -21.000000    -21.000000     42.000000

     1   1 0 0      0.000000      0.000000      0.000000      0.000000
     1   0 1 0      0.000000      0.000000      0.000000      0.000000
     1   0 0 1      0.000000      0.000000      0.000000      0.000000

     2   2 0 0    -23.154082   -108.016459   -108.016459    192.878835
     2   1 1 0      0.000000      0.000000      0.000000      0.000000
     2   1 0 1      0.000000      0.000000      0.000000      0.000000
     2   0 2 0    -23.154082   -108.016459   -108.016459    192.878835
     2   0 1 1      0.000000      0.000000      0.000000      0.000000

 Total times  cpu:        0.7s     wall:        1.3s
