============================== echo of input deck ==============================
echo
start disilane
title "disilane, Si2H6"

geometry autoz
  symmetry group d3d
  Si          0.0         0.0               1.181424
  H           0.990312   -0.990312          1.694694
end

basis spherical
  H  library cc-pvdz
  Si library cc-pvdz
end

mp2
  freeze atomic
end

task mp2 energy
task mp2 optimize

================================================================================

         Total SCF energy =   -581.339155244100

 Vector    8  Occ=2.000000D+00  E=-4.236927D+00  Symmetry=eg

 Vector    9  Occ=2.000000D+00  E=-4.236927D+00  Symmetry=eg

 Vector   10  Occ=2.000000D+00  E=-4.236528D+00  Symmetry=a2u

 Vector   11  Occ=2.000000D+00  E=-7.578634D-01  Symmetry=a1g

 Vector   12  Occ=2.000000D+00  E=-6.798332D-01  Symmetry=a2u

 Vector   13  Occ=2.000000D+00  E=-4.984112D-01  Symmetry=eu

 Vector   14  Occ=2.000000D+00  E=-4.984112D-01  Symmetry=eu

 Vector   15  Occ=2.000000D+00  E=-4.711155D-01  Symmetry=eg

 Vector   16  Occ=2.000000D+00  E=-4.711155D-01  Symmetry=eg

 Vector   17  Occ=2.000000D+00  E=-4.022267D-01  Symmetry=a1g

 Vector   18  Occ=0.000000D+00  E= 1.414786D-01  Symmetry=eu

 Vector   19  Occ=0.000000D+00  E= 1.414786D-01  Symmetry=eu

 Vector   20  Occ=0.000000D+00  E= 1.488456D-01  Symmetry=a2u

 Vector   21  Occ=0.000000D+00  E= 1.754555D-01  Symmetry=a1g

 Vector   22  Occ=0.000000D+00  E= 1.925943D-01  Symmetry=eg

 Vector   23  Occ=0.000000D+00  E= 1.925943D-01  Symmetry=eg

 Vector   24  Occ=0.000000D+00  E= 2.208782D-01  Symmetry=a2u

 Vector   25  Occ=0.000000D+00  E= 3.529703D-01  Symmetry=a1g

 Vector   26  Occ=0.000000D+00  E= 4.029628D-01  Symmetry=eu

 Vector   27  Occ=0.000000D+00  E= 4.029628D-01  Symmetry=eu

 Vector   28  Occ=0.000000D+00  E= 4.358877D-01  Symmetry=eg

 Vector   29  Occ=0.000000D+00  E= 4.358877D-01  Symmetry=eg

 Vector   30  Occ=0.000000D+00  E= 4.633240D-01  Symmetry=eu

 Vector   31  Occ=0.000000D+00  E= 4.633240D-01  Symmetry=eu

 Vector   32  Occ=0.000000D+00  E= 4.802287D-01  Symmetry=a2u

 Vector   33  Occ=0.000000D+00  E= 5.245719D-01  Symmetry=a1g

          Total MP2 energy          -581.553338532590
         Total SCF energy =   -581.339155244100
          Total MP2 energy          -581.553338532590
@ Step       Energy      Delta E   Gmax     Grms     Xrms     Xmax   Walltime
@ ---- ---------------- -------- -------- -------- -------- -------- --------
@    0    -581.55333853  0.0D+00  0.00062  0.00030  0.00000  0.00000     17.1
         Total SCF energy =   -581.339167919471

 Vector    8  Occ=2.000000D+00  E=-4.236635D+00  Symmetry=eg

 Vector    9  Occ=2.000000D+00  E=-4.236635D+00  Symmetry=eg

 Vector   10  Occ=2.000000D+00  E=-4.236226D+00  Symmetry=a2u

 Vector   11  Occ=2.000000D+00  E=-7.581897D-01  Symmetry=a1g

 Vector   12  Occ=2.000000D+00  E=-6.802777D-01  Symmetry=a2u

 Vector   13  Occ=2.000000D+00  E=-4.985608D-01  Symmetry=eu

 Vector   14  Occ=2.000000D+00  E=-4.985608D-01  Symmetry=eu

 Vector   15  Occ=2.000000D+00  E=-4.712847D-01  Symmetry=eg

 Vector   16  Occ=2.000000D+00  E=-4.712847D-01  Symmetry=eg

 Vector   17  Occ=2.000000D+00  E=-4.026023D-01  Symmetry=a1g

 Vector   18  Occ=0.000000D+00  E= 1.414075D-01  Symmetry=eu

 Vector   19  Occ=0.000000D+00  E= 1.414075D-01  Symmetry=eu

 Vector   20  Occ=0.000000D+00  E= 1.489575D-01  Symmetry=a2u

 Vector   21  Occ=0.000000D+00  E= 1.760443D-01  Symmetry=a1g

 Vector   22  Occ=0.000000D+00  E= 1.928665D-01  Symmetry=eg

 Vector   23  Occ=0.000000D+00  E= 1.928665D-01  Symmetry=eg

 Vector   24  Occ=0.000000D+00  E= 2.216355D-01  Symmetry=a2u

 Vector   25  Occ=0.000000D+00  E= 3.529298D-01  Symmetry=a1g

 Vector   26  Occ=0.000000D+00  E= 4.029273D-01  Symmetry=eu

 Vector   27  Occ=0.000000D+00  E= 4.029273D-01  Symmetry=eu

 Vector   28  Occ=0.000000D+00  E= 4.358089D-01  Symmetry=eg

 Vector   29  Occ=0.000000D+00  E= 4.358089D-01  Symmetry=eg

 Vector   30  Occ=0.000000D+00  E= 4.634723D-01  Symmetry=eu

 Vector   31  Occ=0.000000D+00  E= 4.634723D-01  Symmetry=eu

 Vector   32  Occ=0.000000D+00  E= 4.801117D-01  Symmetry=a2u

 Vector   33  Occ=0.000000D+00  E= 5.245273D-01  Symmetry=a1g

          Total MP2 energy          -581.553345872290
         Total SCF energy =   -581.339167919471
          Total MP2 energy          -581.553345872290
@    1    -581.55334587 -7.3D-06  0.00002  0.00000  0.00227  0.00408     33.4
         Total SCF energy =   -581.339167770753

 Vector    8  Occ=2.000000D+00  E=-4.236634D+00  Symmetry=eg

 Vector    9  Occ=2.000000D+00  E=-4.236634D+00  Symmetry=eg

 Vector   10  Occ=2.000000D+00  E=-4.236225D+00  Symmetry=a2u

 Vector   11  Occ=2.000000D+00  E=-7.581922D-01  Symmetry=a1g

 Vector   12  Occ=2.000000D+00  E=-6.802767D-01  Symmetry=a2u

 Vector   13  Occ=2.000000D+00  E=-4.985612D-01  Symmetry=eu

 Vector   14  Occ=2.000000D+00  E=-4.985612D-01  Symmetry=eu

 Vector   15  Occ=2.000000D+00  E=-4.712839D-01  Symmetry=eg

 Vector   16  Occ=2.000000D+00  E=-4.712839D-01  Symmetry=eg

 Vector   17  Occ=2.000000D+00  E=-4.026058D-01  Symmetry=a1g

 Vector   18  Occ=0.000000D+00  E= 1.414067D-01  Symmetry=eu

 Vector   19  Occ=0.000000D+00  E= 1.414067D-01  Symmetry=eu

 Vector   20  Occ=0.000000D+00  E= 1.489604D-01  Symmetry=a2u

 Vector   21  Occ=0.000000D+00  E= 1.760437D-01  Symmetry=a1g

 Vector   22  Occ=0.000000D+00  E= 1.928661D-01  Symmetry=eg

 Vector   23  Occ=0.000000D+00  E= 1.928661D-01  Symmetry=eg

 Vector   24  Occ=0.000000D+00  E= 2.216359D-01  Symmetry=a2u

 Vector   25  Occ=0.000000D+00  E= 3.529292D-01  Symmetry=a1g

 Vector   26  Occ=0.000000D+00  E= 4.029269D-01  Symmetry=eu

 Vector   27  Occ=0.000000D+00  E= 4.029269D-01  Symmetry=eu

 Vector   28  Occ=0.000000D+00  E= 4.358091D-01  Symmetry=eg

 Vector   29  Occ=0.000000D+00  E= 4.358091D-01  Symmetry=eg

 Vector   30  Occ=0.000000D+00  E= 4.634719D-01  Symmetry=eu

 Vector   31  Occ=0.000000D+00  E= 4.634719D-01  Symmetry=eu

 Vector   32  Occ=0.000000D+00  E= 4.801153D-01  Symmetry=a2u

 Vector   33  Occ=0.000000D+00  E= 5.245260D-01  Symmetry=a1g

       Multipole analysis of the density wrt the origin
       ------------------------------------------------

     L   x y z        total         open         nuclear
     -   - - -        -----         ----         -------
     0   0 0 0      0.000000      0.000000     34.000000

     1   1 0 0      0.000000      0.000000      0.000000
     1   0 1 0      0.000000      0.000000      0.000000
     1   0 0 1      0.000000      0.000000      0.000000

     2   2 0 0    -23.840879      0.000000     20.946160
     2   1 1 0      0.000000      0.000000      0.000000
     2   1 0 1      0.000000      0.000000      0.000000
     2   0 2 0    -23.840879      0.000000     20.946160
     2   0 1 1      0.000000      0.000000      0.000000

          Total MP2 energy          -581.553345875220
         Total SCF energy =   -581.339167770753
          Total MP2 energy          -581.553345875220
@    2    -581.55334588 -2.9D-09  0.00001  0.00000  0.00001  0.00003     49.6
@    2    -581.55334588 -2.9D-09  0.00001  0.00000  0.00001  0.00003     49.6

 Output coordinates in angstroms (scale by  1.889725989 to convert to a.u.)

  No.       Tag          Charge          X              Y              Z
 ---- ---------------- ---------- -------------- -------------- --------------
    1 Si                  14.0000     0.00000000     0.00000000     1.18104177
    2 Si                  14.0000     0.00000000     0.00000000    -1.18104177
    3 H                    1.0000     0.98873008    -0.98873008     1.69553512
    4 H                    1.0000     0.36190033     1.35063041     1.69553512
    5 H                    1.0000    -1.35063041    -0.36190033     1.69553512
    6 H                    1.0000    -0.98873008     0.98873008    -1.69553512
    7 H                    1.0000     1.35063041     0.36190033    -1.69553512
    8 H                    1.0000    -0.36190033    -1.35063041    -1.69553512

 Total times  cpu:       47.3s     wall:       49.6s
