============================== echo of input deck ==============================
echo
start disilane
title "disilane, Si2H6"

geometry autoz
  symmetry group d3d
  Si          0.0         0.0               1.181424
  H           0.990312   -0.990312          1.694694
end

basis "ao basis" spherical
  H  library cc-pvdz
  Si library cc-pvdz
end

basis "ri-mp2 basis" spherical
  H  library cc-pvdz-ri
  Si library cc-pvdz-ri
end

mp2
  freeze atomic
end

task rimp2 energy
task rimp2 optimize

================================================================================

         Total SCF energy =   -581.339155244102
          Total MP2 energy          -581.553086916207
         Total SCF energy =   -581.339155244102
          Total MP2 energy          -581.553086916207
         Total SCF energy =   -581.339120747040
          Total MP2 energy          -581.553061513525
         Total SCF energy =   -581.339171684924
          Total MP2 energy          -581.553094801186
         Total SCF energy =   -581.339147986534
          Total MP2 energy          -581.553081320033
         Total SCF energy =   -581.339157153744
          Total MP2 energy          -581.553087645656
         Total SCF energy =   -581.339180375181
          Total MP2 energy          -581.553073010523
         Total SCF energy =   -581.339094052868
          Total MP2 energy          -581.553067070300
@ Step       Energy      Delta E   Gmax     Grms     Xrms     Xmax   Walltime
@ ---- ---------------- -------- -------- -------- -------- -------- --------
@    0    -581.55308692  0.0D+00  0.00068  0.00032  0.00000  0.00000     10.3
         Total SCF energy =   -581.339167927872
          Total MP2 energy          -581.553095379100
         Total SCF energy =   -581.339167927872
          Total MP2 energy          -581.553095379100
         Total SCF energy =   -581.339150528757
          Total MP2 energy          -581.553086490457
         Total SCF energy =   -581.339167148876
          Total MP2 energy          -581.553086628343
         Total SCF energy =   -581.339163415696
          Total MP2 energy          -581.553092734577
         Total SCF energy =   -581.339167075510
          Total MP2 energy          -581.553093140510
         Total SCF energy =   -581.339190641373
          Total MP2 energy          -581.553078450333
         Total SCF energy =   -581.339109039869
          Total MP2 energy          -581.553078443738
@    1    -581.55309538 -8.5D-06  0.00002  0.00001  0.00236  0.00433     20.1
         Total SCF energy =   -581.339167741443
          Total MP2 energy          -581.553095383568
         Total SCF energy =   -581.339167741443
          Total MP2 energy          -581.553095383568
         Total SCF energy =   -581.339150387231
          Total MP2 energy          -581.553086541860
         Total SCF energy =   -581.339166916623
          Total MP2 energy          -581.553086587259
         Total SCF energy =   -581.339163355652

 Vector   32  Occ=0.000000D+00  E= 4.799030D-01  Symmetry=a2u

 Vector   33  Occ=0.000000D+00  E= 5.242045D-01  Symmetry=a1g

          Total MP2 energy          -581.553092853262
         Total SCF energy =   -581.339166763042

 Vector    8  Occ=2.000000D+00  E=-4.236363D+00  Symmetry=eg

 Vector    9  Occ=2.000000D+00  E=-4.236363D+00  Symmetry=eg

 Vector   10  Occ=2.000000D+00  E=-4.235951D+00  Symmetry=a2u

 Vector   11  Occ=2.000000D+00  E=-7.582939D-01  Symmetry=a1g

 Vector   12  Occ=2.000000D+00  E=-6.803630D-01  Symmetry=a2u

 Vector   13  Occ=2.000000D+00  E=-4.987819D-01  Symmetry=eu

 Vector   14  Occ=2.000000D+00  E=-4.987819D-01  Symmetry=eu

 Vector   15  Occ=2.000000D+00  E=-4.714597D-01  Symmetry=eg

 Vector   16  Occ=2.000000D+00  E=-4.714597D-01  Symmetry=eg

 Vector   17  Occ=2.000000D+00  E=-4.021668D-01  Symmetry=a1g

 Vector   18  Occ=0.000000D+00  E= 1.418676D-01  Symmetry=eu

 Vector   19  Occ=0.000000D+00  E= 1.418676D-01  Symmetry=eu

 Vector   20  Occ=0.000000D+00  E= 1.490661D-01  Symmetry=a2u

 Vector   21  Occ=0.000000D+00  E= 1.759300D-01  Symmetry=a1g

 Vector   22  Occ=0.000000D+00  E= 1.927582D-01  Symmetry=eg

 Vector   23  Occ=0.000000D+00  E= 1.927582D-01  Symmetry=eg

 Vector   24  Occ=0.000000D+00  E= 2.217295D-01  Symmetry=a2u

 Vector   25  Occ=0.000000D+00  E= 3.529240D-01  Symmetry=a1g

 Vector   26  Occ=0.000000D+00  E= 4.028777D-01  Symmetry=eu

 Vector   27  Occ=0.000000D+00  E= 4.028777D-01  Symmetry=eu

 Vector   28  Occ=0.000000D+00  E= 4.357973D-01  Symmetry=eg

 Vector   29  Occ=0.000000D+00  E= 4.357973D-01  Symmetry=eg

 Vector   30  Occ=0.000000D+00  E= 4.634101D-01  Symmetry=eu

 Vector   31  Occ=0.000000D+00  E= 4.634101D-01  Symmetry=eu

 Vector   32  Occ=0.000000D+00  E= 4.803784D-01  Symmetry=a2u

 Vector   33  Occ=0.000000D+00  E= 5.248983D-01  Symmetry=a1g

          Total MP2 energy          -581.553093033426
         Total SCF energy =   -581.339190383027

 Vector    8  Occ=2.000000D+00  E=-4.236444D+00  Symmetry=eg

 Vector    9  Occ=2.000000D+00  E=-4.236444D+00  Symmetry=eg

 Vector   10  Occ=2.000000D+00  E=-4.236022D+00  Symmetry=a2u

 Vector   11  Occ=2.000000D+00  E=-7.576862D-01  Symmetry=a1g

 Vector   12  Occ=2.000000D+00  E=-6.806356D-01  Symmetry=a2u

 Vector   13  Occ=2.000000D+00  E=-4.987266D-01  Symmetry=eu

 Vector   14  Occ=2.000000D+00  E=-4.987266D-01  Symmetry=eu

 Vector   15  Occ=2.000000D+00  E=-4.717149D-01  Symmetry=eg

 Vector   16  Occ=2.000000D+00  E=-4.717149D-01  Symmetry=eg

 Vector   17  Occ=2.000000D+00  E=-4.011554D-01  Symmetry=a1g

 Vector   18  Occ=0.000000D+00  E= 1.421861D-01  Symmetry=eu

 Vector   19  Occ=0.000000D+00  E= 1.421861D-01  Symmetry=eu

 Vector   20  Occ=0.000000D+00  E= 1.483242D-01  Symmetry=a2u

 Vector   21  Occ=0.000000D+00  E= 1.760347D-01  Symmetry=a1g

 Vector   22  Occ=0.000000D+00  E= 1.928288D-01  Symmetry=eg

 Vector   23  Occ=0.000000D+00  E= 1.928288D-01  Symmetry=eg

 Vector   24  Occ=0.000000D+00  E= 2.216274D-01  Symmetry=a2u

 Vector   25  Occ=0.000000D+00  E= 3.530846D-01  Symmetry=a1g

 Vector   26  Occ=0.000000D+00  E= 4.029728D-01  Symmetry=eu

 Vector   27  Occ=0.000000D+00  E= 4.029728D-01  Symmetry=eu

 Vector   28  Occ=0.000000D+00  E= 4.357438D-01  Symmetry=eg

 Vector   29  Occ=0.000000D+00  E= 4.357438D-01  Symmetry=eg

 Vector   30  Occ=0.000000D+00  E= 4.635090D-01  Symmetry=eu

 Vector   31  Occ=0.000000D+00  E= 4.635090D-01  Symmetry=eu

 Vector   32  Occ=0.000000D+00  E= 4.794997D-01  Symmetry=a2u

 Vector   33  Occ=0.000000D+00  E= 5.253345D-01  Symmetry=a1g

          Total MP2 energy          -581.553078400892
         Total SCF energy =   -581.339108923612

 Vector    8  Occ=2.000000D+00  E=-4.236751D+00  Symmetry=eg

 Vector    9  Occ=2.000000D+00  E=-4.236751D+00  Symmetry=eg

 Vector   10  Occ=2.000000D+00  E=-4.236355D+00  Symmetry=a2u

 Vector   11  Occ=2.000000D+00  E=-7.587700D-01  Symmetry=a1g

 Vector   12  Occ=2.000000D+00  E=-6.799688D-01  Symmetry=a2u

 Vector   13  Occ=2.000000D+00  E=-4.984489D-01  Symmetry=eu

 Vector   14  Occ=2.000000D+00  E=-4.984489D-01  Symmetry=eu

 Vector   15  Occ=2.000000D+00  E=-4.708907D-01  Symmetry=eg

 Vector   16  Occ=2.000000D+00  E=-4.708907D-01  Symmetry=eg

 Vector   17  Occ=2.000000D+00  E=-4.040393D-01  Symmetry=a1g

 Vector   18  Occ=0.000000D+00  E= 1.406850D-01  Symmetry=eu

 Vector   19  Occ=0.000000D+00  E= 1.406850D-01  Symmetry=eu

 Vector   20  Occ=0.000000D+00  E= 1.496360D-01  Symmetry=a2u

 Vector   21  Occ=0.000000D+00  E= 1.760894D-01  Symmetry=a1g

 Vector   22  Occ=0.000000D+00  E= 1.929116D-01  Symmetry=eg

 Vector   23  Occ=0.000000D+00  E= 1.929116D-01  Symmetry=eg

 Vector   24  Occ=0.000000D+00  E= 2.217391D-01  Symmetry=a2u

 Vector   25  Occ=0.000000D+00  E= 3.527520D-01  Symmetry=a1g

 Vector   26  Occ=0.000000D+00  E= 4.028616D-01  Symmetry=eu

 Vector   27  Occ=0.000000D+00  E= 4.028616D-01  Symmetry=eu

 Vector   28  Occ=0.000000D+00  E= 4.358649D-01  Symmetry=eg

 Vector   29  Occ=0.000000D+00  E= 4.358649D-01  Symmetry=eg

 Vector   30  Occ=0.000000D+00  E= 4.634413D-01  Symmetry=eu

 Vector   31  Occ=0.000000D+00  E= 4.634413D-01  Symmetry=eu

 Vector   32  Occ=0.000000D+00  E= 4.807850D-01  Symmetry=a2u

 Vector   33  Occ=0.000000D+00  E= 5.237874D-01  Symmetry=a1g

       Multipole analysis of the density wrt the origin
       ------------------------------------------------

     L   x y z        total         open         nuclear
     -   - - -        -----         ----         -------
     0   0 0 0      0.000000      0.000000     34.000000

     1   1 0 0      0.000000      0.000000      0.000000
     1   0 1 0      0.000000      0.000000      0.000000
     1   0 0 1      0.000000      0.000000      0.000000

     2   2 0 0    -23.844327      0.000000     20.942501
     2   1 1 0      0.000000      0.000000      0.000000
     2   1 0 1      0.000000      0.000000      0.000000
     2   0 2 0    -23.844327      0.000000     20.942501
     2   0 1 1      0.000000      0.000000      0.000000

          Total MP2 energy          -581.553078502722
@    2    -581.55309538 -4.5D-09  0.00001  0.00000  0.00008  0.00015     29.6
@    2    -581.55309538 -4.5D-09  0.00001  0.00000  0.00008  0.00015     29.6

 Output coordinates in angstroms (scale by  1.889725989 to convert to a.u.)

  No.       Tag          Charge          X              Y              Z
 ---- ---------------- ---------- -------------- -------------- --------------
    1 Si                  14.0000     0.00000000     0.00000000     1.18097848
    2 Si                  14.0000     0.00000000     0.00000000    -1.18097848
    3 H                    1.0000     0.98864372    -0.98864372     1.69536425
    4 H                    1.0000     0.36186872     1.35051244     1.69536425
    5 H                    1.0000    -1.35051244    -0.36186872     1.69536425
    6 H                    1.0000    -0.98864372     0.98864372    -1.69536425
    7 H                    1.0000     1.35051244     0.36186872    -1.69536425
    8 H                    1.0000    -0.36186872    -1.35051244    -1.69536425

 Total times  cpu:       25.9s     wall:       29.6s
