============================== echo of input deck ==============================
echo
start ethane-excit

title "TDDFT on ethane"

memory 1000 mb

geometry
symmetry c1
C -0.5371  0.1483 -0.0004
C  0.9655  0.0799  0.0003
H -0.9004  1.0545 -0.5025
H -0.9797 -0.7117 -0.5198
H -0.9424  0.1567  1.0198
H  1.4100  0.9449  0.5095
H  1.3299 -0.8206  0.5119
H  1.3706  0.0614 -1.0198
end

basis
 C library 6-31G
 H library 6-31G
end

dft
 xc  becke88 1. lyp 1.   # BLYP functional
end

tddft
 nroots 10
end
task tddft energy
================================================================================

 Output coordinates in angstroms (scale by  1.889725989 to convert to a.u.)

  No.       Tag          Charge          X              Y              Z
 ---- ---------------- ---------- -------------- -------------- --------------
    1 C                    6.0000    -0.75145556     0.03416667    -0.00031667
    2 C                    6.0000     0.75114444    -0.03423333     0.00038333
    3 H                    1.0000    -1.11475556     0.94036667    -0.50241667
    4 H                    1.0000    -1.19405556    -0.82583333    -0.51971667
    5 H                    1.0000    -1.15675556     0.04256667     1.01988333
    6 H                    1.0000     1.19564444     0.83076667     0.50958333
    7 H                    1.0000     1.11554444    -0.93473333     0.51198333
    8 H                    1.0000     1.15624444    -0.05273333    -1.01971667

         Total DFT energy =      -79.747011330866

                       DFT Final Molecular Orbital Analysis
                       ------------------------------------

 Vector    1  Occ=2.000000D+00  E=-9.900267D+00

 Vector    2  Occ=2.000000D+00  E=-9.900204D+00

 Vector    3  Occ=2.000000D+00  E=-6.723334D-01

 Vector    4  Occ=2.000000D+00  E=-5.410077D-01

 Vector    5  Occ=2.000000D+00  E=-3.775020D-01

 Vector    6  Occ=2.000000D+00  E=-3.774361D-01

 Vector    7  Occ=2.000000D+00  E=-3.182030D-01

 Vector    8  Occ=2.000000D+00  E=-2.871461D-01

 Vector    9  Occ=2.000000D+00  E=-2.870439D-01

 Vector   10  Occ=0.000000D+00  E= 8.149253D-02

 Vector   11  Occ=0.000000D+00  E= 1.317183D-01

 Vector   12  Occ=0.000000D+00  E= 1.356737D-01

 Vector   13  Occ=0.000000D+00  E= 1.357164D-01

 Vector   14  Occ=0.000000D+00  E= 1.656315D-01

 Vector   15  Occ=0.000000D+00  E= 1.657287D-01

 Vector   16  Occ=0.000000D+00  E= 2.224886D-01

 Vector   17  Occ=0.000000D+00  E= 4.946587D-01

 Vector   18  Occ=0.000000D+00  E= 5.296423D-01

 Vector   19  Occ=0.000000D+00  E= 5.297379D-01

     Multipole analysis of the density
     ---------------------------------

     L   x y z        total         alpha         beta         nuclear
     -   - - -        -----         -----         ----         -------
     0   0 0 0      0.000000     -9.000000     -9.000000     18.000000

     1   1 0 0      0.000142      0.000071      0.000071      0.000000
     1   0 1 0      0.000167      0.000084      0.000084      0.000000
     1   0 0 1     -0.000081     -0.000040     -0.000040      0.000000

     2   2 0 0    -11.336472    -32.077790    -32.077790     52.819108
     2   1 1 0      0.014058      0.953662      0.953662     -1.893266
     2   1 0 1     -0.001015     -0.010187     -0.010187      0.019359
     2   0 2 0    -11.023762    -11.134197    -11.134197     11.244632
     2   0 1 1     -0.001181      0.001976      0.001976     -0.005132

  Root  1 singlet a     0.375450948 a.u. ( 10.2165445 eV)
     Dipole Oscillator Strength                          0.00000
  Root  2 singlet a     0.375552440 a.u. ( 10.2193062 eV)
     Dipole Oscillator Strength                          0.00000
  Root  3 singlet a     0.411233292 a.u. ( 11.1902320 eV)
     Dipole Oscillator Strength                          0.00000
  Root  4 singlet a     0.423027453 a.u. ( 11.5111676 eV)
     Dipole Oscillator Strength                          0.00000
  Root  5 singlet a     0.425306043 a.u. ( 11.5731712 eV)
     Dipole Oscillator Strength                          0.01466
  Root  6 singlet a     0.425413338 a.u. ( 11.5760909 eV)
     Dipole Oscillator Strength                          0.01446
  Root  7 singlet a     0.437404678 a.u. ( 11.9023919 eV)
     Dipole Oscillator Strength                          0.12908
  Root  8 singlet a     0.437455453 a.u. ( 11.9037736 eV)
     Dipole Oscillator Strength                          0.12909
  Root  9 singlet a     0.447150787 a.u. ( 12.1675972 eV)
     Dipole Oscillator Strength                          0.08412
  Root 10 singlet a     0.452780473 a.u. ( 12.3207888 eV)
     Dipole Oscillator Strength                          0.00002
  Root  1 triplet a     0.355676034 a.u. (  9.6784414 eV)
  Root  2 triplet a     0.355776480 a.u. (  9.6811747 eV)
  Root  3 triplet a     0.385350292 a.u. ( 10.4859194 eV)
  Root  4 triplet a     0.386497762 a.u. ( 10.5171437 eV)
  Root  5 triplet a     0.393684499 a.u. ( 10.7127048 eV)
  Root  6 triplet a     0.393702278 a.u. ( 10.7131886 eV)
  Root  7 triplet a     0.413426406 a.u. ( 11.2499097 eV)
  Root  8 triplet a     0.413533842 a.u. ( 11.2528332 eV)
  Root  9 triplet a     0.420147815 a.u. ( 11.4328086 eV)
  Root 10 triplet a     0.421183479 a.u. ( 11.4609905 eV)
 Total times  cpu:       41.1s     wall:       65.1s
