============================== echo of input deck ==============================
echo
start butane-excit

title "TDDFT on butane"

memory 1000 mb

geometry
symmetry c1
H  1.0000  0.4400  0.0000
C  1.0000  1.5400  0.0000
C  2.4561  2.0414  0.0000
H  0.4800  1.8981  0.9007
H  0.4800  1.8981 -0.9007
H  2.9640  1.6663 -0.9007
H  2.9640  1.6663  0.9007
C  2.4561  3.5814  0.0000
C  3.9122  4.0827  0.0000
H  1.9361  3.9395  0.9007
H  1.9361  3.9395 -0.9007
H  4.4201  3.7076 -0.9007
H  4.4201  3.7076  0.9007
H  3.9122  5.1828  0.0000
end

basis
 C library 6-31G
 H library 6-31G
end

dft
 xc  becke88 1. lyp 1.   # BLYP functional
end

tddft
 nroots 10
 notriplet
end
task tddft energy
================================================================================

 Output coordinates in angstroms (scale by  1.889725989 to convert to a.u.)

  No.       Tag          Charge          X              Y              Z
 ---- ---------------- ---------- -------------- -------------- --------------
    1 H                    1.0000    -1.45467647    -2.36937647     0.00000000
    2 C                    6.0000    -1.45467647    -1.26937647     0.00000000
    3 C                    6.0000     0.00142353    -0.76797647     0.00000000
    4 H                    1.0000    -1.97467647    -0.91127647     0.90070000
    5 H                    1.0000    -1.97467647    -0.91127647    -0.90070000
    6 H                    1.0000     0.50932353    -1.14307647    -0.90070000
    7 H                    1.0000     0.50932353    -1.14307647     0.90070000
    8 C                    6.0000     0.00142353     0.77202353     0.00000000
    9 C                    6.0000     1.45752353     1.27332353     0.00000000
   10 H                    1.0000    -0.51857647     1.13012353     0.90070000
   11 H                    1.0000    -0.51857647     1.13012353    -0.90070000
   12 H                    1.0000     1.96542353     0.89822353    -0.90070000
   13 H                    1.0000     1.96542353     0.89822353     0.90070000
   14 H                    1.0000     1.45752353     2.37342353     0.00000000

         Total DFT energy =     -158.298767371227

                       DFT Final Molecular Orbital Analysis
                       ------------------------------------

 Vector    4  Occ=2.000000D+00  E=-9.898324D+00

 Vector    5  Occ=2.000000D+00  E=-7.063339D-01

 Vector    6  Occ=2.000000D+00  E=-6.381680D-01

 Vector    7  Occ=2.000000D+00  E=-5.481127D-01

 Vector    8  Occ=2.000000D+00  E=-5.038404D-01

 Vector    9  Occ=2.000000D+00  E=-4.127667D-01

 Vector   10  Occ=2.000000D+00  E=-3.677295D-01

 Vector   11  Occ=2.000000D+00  E=-3.557203D-01

 Vector   12  Occ=2.000000D+00  E=-3.544468D-01

 Vector   13  Occ=2.000000D+00  E=-3.115584D-01

 Vector   14  Occ=2.000000D+00  E=-2.985336D-01

 Vector   15  Occ=2.000000D+00  E=-2.794987D-01

 Vector   16  Occ=2.000000D+00  E=-2.780222D-01

 Vector   17  Occ=2.000000D+00  E=-2.581806D-01

 Vector   18  Occ=0.000000D+00  E= 6.879365D-02

 Vector   19  Occ=0.000000D+00  E= 9.624338D-02

 Vector   20  Occ=0.000000D+00  E= 1.071779D-01

 Vector   21  Occ=0.000000D+00  E= 1.196817D-01

 Vector   22  Occ=0.000000D+00  E= 1.444270D-01

 Vector   23  Occ=0.000000D+00  E= 1.614171D-01

 Vector   24  Occ=0.000000D+00  E= 1.619357D-01

 Vector   25  Occ=0.000000D+00  E= 1.620923D-01

 Vector   26  Occ=0.000000D+00  E= 1.769600D-01

 Vector   27  Occ=0.000000D+00  E= 1.776195D-01

 Vector   28  Occ=0.000000D+00  E= 2.179483D-01

 Vector   29  Occ=0.000000D+00  E= 2.201909D-01

 Vector   30  Occ=0.000000D+00  E= 2.223242D-01

 Vector   31  Occ=0.000000D+00  E= 4.916085D-01

 Vector   32  Occ=0.000000D+00  E= 5.047260D-01

     Multipole analysis of the density
     ---------------------------------

     L   x y z        total         alpha         beta         nuclear
     -   - - -        -----         -----         ----         -------
     0   0 0 0      0.000000    -17.000000    -17.000000     34.000000

     1   1 0 0     -0.001960     -0.000980     -0.000980      0.000000
     1   0 1 0     -0.004149     -0.002075     -0.002075      0.000000
     1   0 0 1      0.000000      0.000000      0.000000      0.000000

     2   2 0 0    -21.832248    -93.522646    -93.522646    165.213045
     2   1 1 0     -0.430317    -60.769423    -60.769423    121.108530
     2   1 0 1      0.000000      0.000000      0.000000      0.000000
     2   0 2 0    -21.355242    -93.169236    -93.169236    164.983230
     2   0 1 1      0.000000      0.000000      0.000000      0.000000

  Root  1 singlet a     0.330989099 a.u. (  9.0066755 eV)
     Dipole Oscillator Strength                          0.00001
  Root  2 singlet a     0.351368227 a.u. (  9.5612200 eV)
     Dipole Oscillator Strength                          0.00000
  Root  3 singlet a     0.355770476 a.u. (  9.6810114 eV)
     Dipole Oscillator Strength                          0.00001
  Root  4 singlet a     0.360234244 a.u. (  9.8024767 eV)
     Dipole Oscillator Strength                          0.03858
  Root  5 singlet a     0.367262039 a.u. (  9.9937128 eV)
     Dipole Oscillator Strength                          0.00071
  Root  6 singlet a     0.369429339 a.u. ( 10.0526881 eV)
     Dipole Oscillator Strength                          0.00092
  Root  7 singlet a     0.377387438 a.u. ( 10.2692390 eV)
     Dipole Oscillator Strength                          0.01270
  Root  8 singlet a     0.379577824 a.u. ( 10.3288425 eV)
     Dipole Oscillator Strength                          0.02906
  Root  9 singlet a     0.383988080 a.u. ( 10.4488518 eV)
     Dipole Oscillator Strength                          0.11884
  Root 10 singlet a     0.386669418 a.u. ( 10.5218147 eV)
     Dipole Oscillator Strength                          0.01047
 Total times  cpu:      123.0s     wall:      148.8s
