============================== echo of input deck ==============================
echo
title "using and scratch and permanent directories"

start c6h6-b3lyp

scratch_dir ./scratch
permanent_dir ./permanent

geometry
 C    0.99261000     0.99261000     0.00000000
 C   -1.35593048     0.36332048     0.00000000
 C    0.36332048    -1.35593048     0.00000000
 C   -0.99261000    -0.99261000     0.00000000
 C    1.35593048    -0.36332048     0.00000000
 C   -0.36332048     1.35593048     0.00000000
 H    1.75792000     1.75792000     0.00000000
 H   -2.40136338     0.64344338     0.00000000
 H    0.64344338    -2.40136338     0.00000000
 H   -1.75792000    -1.75792000     0.00000000
 H    2.40136338    -0.64344338     0.00000000
 H   -0.64344338     2.40136338     0.00000000
end

basis
* library 3-21G
end

dft
  xc b3lyp
end

task dft energy
task dft optimize
================================================================================

         Total DFT energy =     -230.975522722192

 Vector   16  Occ=2.000000D+00  E=-4.258447D-01  Symmetry=e1u

 Vector   17  Occ=2.000000D+00  E=-3.639419D-01  Symmetry=a2u

 Vector   18  Occ=2.000000D+00  E=-3.466067D-01  Symmetry=e2g

 Vector   19  Occ=2.000000D+00  E=-3.466067D-01  Symmetry=e2g

 Vector   20  Occ=2.000000D+00  E=-2.501368D-01  Symmetry=e1g

 Vector   21  Occ=2.000000D+00  E=-2.501368D-01  Symmetry=e1g

 Vector   22  Occ=0.000000D+00  E= 3.850269D-03  Symmetry=e2u

 Vector   23  Occ=0.000000D+00  E= 3.850269D-03  Symmetry=e2u

 Vector   24  Occ=0.000000D+00  E= 1.075825D-01  Symmetry=a1g

 Vector   25  Occ=0.000000D+00  E= 1.621726D-01  Symmetry=b2g

 Vector   26  Occ=0.000000D+00  E= 1.650624D-01  Symmetry=e1u

 Vector   27  Occ=0.000000D+00  E= 1.650624D-01  Symmetry=e1u

 Vector   28  Occ=0.000000D+00  E= 2.053488D-01  Symmetry=e2g

 Vector   29  Occ=0.000000D+00  E= 2.053488D-01  Symmetry=e2g

 Vector   30  Occ=0.000000D+00  E= 2.116516D-01  Symmetry=b1u

 Vector   31  Occ=0.000000D+00  E= 3.217240D-01  Symmetry=e2g

 Vector   32  Occ=0.000000D+00  E= 3.217240D-01  Symmetry=e2g

 Vector   33  Occ=0.000000D+00  E= 3.331762D-01  Symmetry=e1u

 Vector   34  Occ=0.000000D+00  E= 3.331762D-01  Symmetry=e1u

 Vector   35  Occ=0.000000D+00  E= 5.685785D-01  Symmetry=b1u

         Total DFT energy =   -230.975522722192
@ Step       Energy      Delta E   Gmax     Grms     Xrms     Xmax   Walltime
@ ---- ---------------- -------- -------- -------- -------- -------- --------
@    0    -230.97552272  0.0D+00  0.00609  0.00206  0.00000  0.00000      1.5
         Total DFT energy =     -230.975757869054

 Vector    6  Occ=2.000000D+00  E=-1.012539D+01  Symmetry=a1g

 Vector    7  Occ=2.000000D+00  E=-8.557241D-01  Symmetry=a1g

 Vector    8  Occ=2.000000D+00  E=-7.463101D-01  Symmetry=e1u

 Vector    9  Occ=2.000000D+00  E=-7.463101D-01  Symmetry=e1u

 Vector   10  Occ=2.000000D+00  E=-6.048469D-01  Symmetry=e2g

 Vector   11  Occ=2.000000D+00  E=-6.048469D-01  Symmetry=e2g

 Vector   12  Occ=2.000000D+00  E=-5.284809D-01  Symmetry=a1g

 Vector   13  Occ=2.000000D+00  E=-4.605773D-01  Symmetry=b1u

 Vector   14  Occ=2.000000D+00  E=-4.528283D-01  Symmetry=b2u

 Vector   15  Occ=2.000000D+00  E=-4.261764D-01  Symmetry=e1u

 Vector   16  Occ=2.000000D+00  E=-4.261764D-01  Symmetry=e1u

 Vector   17  Occ=2.000000D+00  E=-3.663396D-01  Symmetry=a2u

 Vector   18  Occ=2.000000D+00  E=-3.461387D-01  Symmetry=e2g

 Vector   19  Occ=2.000000D+00  E=-3.461387D-01  Symmetry=e2g

 Vector   20  Occ=2.000000D+00  E=-2.511208D-01  Symmetry=e1g

 Vector   21  Occ=2.000000D+00  E=-2.511208D-01  Symmetry=e1g

 Vector   22  Occ=0.000000D+00  E= 5.351730D-03  Symmetry=e2u

 Vector   23  Occ=0.000000D+00  E= 5.351730D-03  Symmetry=e2u

 Vector   24  Occ=0.000000D+00  E= 1.065307D-01  Symmetry=a1g

 Vector   25  Occ=0.000000D+00  E= 1.643530D-01  Symmetry=e1u

 Vector   26  Occ=0.000000D+00  E= 1.643530D-01  Symmetry=e1u

 Vector   27  Occ=0.000000D+00  E= 1.657436D-01  Symmetry=b2g

 Vector   28  Occ=0.000000D+00  E= 2.066887D-01  Symmetry=e2g

 Vector   29  Occ=0.000000D+00  E= 2.066887D-01  Symmetry=e2g

 Vector   30  Occ=0.000000D+00  E= 2.127479D-01  Symmetry=b1u

 Vector   31  Occ=0.000000D+00  E= 3.247831D-01  Symmetry=e2g

 Vector   32  Occ=0.000000D+00  E= 3.247831D-01  Symmetry=e2g

 Vector   33  Occ=0.000000D+00  E= 3.374664D-01  Symmetry=e1u

 Vector   34  Occ=0.000000D+00  E= 3.374664D-01  Symmetry=e1u

 Vector   35  Occ=0.000000D+00  E= 5.774363D-01  Symmetry=b1u

         Total DFT energy =   -230.975757869054
@    1    -230.97575787 -2.4D-04  0.00039  0.00013  0.00661  0.01253      2.8
         Total DFT energy =     -230.975758778684

                       DFT Final Molecular Orbital Analysis
                       ------------------------------------

 Vector    6  Occ=2.000000D+00  E=-1.012550D+01  Symmetry=a1g

 Vector    7  Occ=2.000000D+00  E=-8.555105D-01  Symmetry=a1g

 Vector    8  Occ=2.000000D+00  E=-7.462050D-01  Symmetry=e1u

 Vector    9  Occ=2.000000D+00  E=-7.462050D-01  Symmetry=e1u

 Vector   10  Occ=2.000000D+00  E=-6.047947D-01  Symmetry=e2g

 Vector   11  Occ=2.000000D+00  E=-6.047947D-01  Symmetry=e2g

 Vector   12  Occ=2.000000D+00  E=-5.283707D-01  Symmetry=a1g

 Vector   13  Occ=2.000000D+00  E=-4.606519D-01  Symmetry=b1u

 Vector   14  Occ=2.000000D+00  E=-4.527128D-01  Symmetry=b2u

 Vector   15  Occ=2.000000D+00  E=-4.261338D-01  Symmetry=e1u

 Vector   16  Occ=2.000000D+00  E=-4.261338D-01  Symmetry=e1u

 Vector   17  Occ=2.000000D+00  E=-3.662007D-01  Symmetry=a2u

 Vector   18  Occ=2.000000D+00  E=-3.461516D-01  Symmetry=e2g

 Vector   19  Occ=2.000000D+00  E=-3.461516D-01  Symmetry=e2g

 Vector   20  Occ=2.000000D+00  E=-2.510664D-01  Symmetry=e1g

 Vector   21  Occ=2.000000D+00  E=-2.510664D-01  Symmetry=e1g

 Vector   22  Occ=0.000000D+00  E= 5.258059D-03  Symmetry=e2u

 Vector   23  Occ=0.000000D+00  E= 5.258059D-03  Symmetry=e2u

 Vector   24  Occ=0.000000D+00  E= 1.065194D-01  Symmetry=a1g

 Vector   25  Occ=0.000000D+00  E= 1.643283D-01  Symmetry=e1u

 Vector   26  Occ=0.000000D+00  E= 1.643283D-01  Symmetry=e1u

 Vector   27  Occ=0.000000D+00  E= 1.655261D-01  Symmetry=b2g

 Vector   28  Occ=0.000000D+00  E= 2.065630D-01  Symmetry=e2g

 Vector   29  Occ=0.000000D+00  E= 2.065630D-01  Symmetry=e2g

 Vector   30  Occ=0.000000D+00  E= 2.126115D-01  Symmetry=b1u

 Vector   31  Occ=0.000000D+00  E= 3.245797D-01  Symmetry=e2g

 Vector   32  Occ=0.000000D+00  E= 3.245797D-01  Symmetry=e2g

 Vector   33  Occ=0.000000D+00  E= 3.372177D-01  Symmetry=e1u

 Vector   34  Occ=0.000000D+00  E= 3.372177D-01  Symmetry=e1u

 Vector   35  Occ=0.000000D+00  E= 5.768928D-01  Symmetry=b1u

     Multipole analysis of the density
     ---------------------------------

     L   x y z        total         alpha         beta         nuclear
     -   - - -        -----         -----         ----         -------
     0   0 0 0      0.000000    -21.000000    -21.000000     42.000000

     1   1 0 0      0.000000      0.000000      0.000000      0.000000
     1   0 1 0      0.000000      0.000000      0.000000      0.000000
     1   0 0 1      0.000000      0.000000      0.000000      0.000000

     2   2 0 0    -23.187626   -107.329223   -107.329223    191.470820
     2   1 1 0      0.000000      0.000000      0.000000      0.000000
     2   1 0 1      0.000000      0.000000      0.000000      0.000000
     2   0 2 0    -23.187626   -107.329223   -107.329223    191.470820
     2   0 1 1      0.000000      0.000000      0.000000      0.000000

         Total DFT energy =   -230.975758778684
@    2    -230.97575878 -9.1D-07  0.00001  0.00000  0.00050  0.00092      4.0
@    2    -230.97575878 -9.1D-07  0.00001  0.00000  0.00050  0.00092      4.0

 Output coordinates in angstroms (scale by  1.889725989 to convert to a.u.)

  No.       Tag          Charge          X              Y              Z
 ---- ---------------- ---------- -------------- -------------- --------------
    1 C                    6.0000     0.98804779     0.98804779     0.00000000
    2 C                    6.0000    -1.34969838     0.36165059     0.00000000
    3 C                    6.0000     0.36165059    -1.34969838     0.00000000
    4 C                    6.0000    -0.98804779    -0.98804779     0.00000000
    5 C                    6.0000     1.34969838    -0.36165059     0.00000000
    6 C                    6.0000    -0.36165059     1.34969838     0.00000000
    7 H                    1.0000     1.75464691     1.75464691     0.00000000
    8 H                    1.0000    -2.39689225     0.64224534     0.00000000
    9 H                    1.0000     0.64224534    -2.39689225     0.00000000
   10 H                    1.0000    -1.75464691    -1.75464691     0.00000000
   11 H                    1.0000     2.39689225    -0.64224534     0.00000000
   12 H                    1.0000    -0.64224534     2.39689225     0.00000000

 Total times  cpu:        2.5s     wall:        4.0s
