============================== echo of input deck ==============================
echo

start 2H2O_b3lyp

title "2 waters"

memory 1000 mb

geometry
symmetry c1
O     -0.000545       1.517541       0.000000
H      0.094538       0.553640       0.000000
H      0.901237       1.847958       0.000000
O     -0.000545      -1.389760       0.000000
H     -0.493527      -1.711924       0.761014
H     -0.493527      -1.711924      -0.761014
end

basis
 O library 6-31G**
 H library 6-31G**
end

dft
 xc b3lyp
end

tddft
 nroots 10
 notriplet
end
task tddft energy
================================================================================

 Output coordinates in angstroms (scale by  1.889725989 to convert to a.u.)

  No.       Tag          Charge          X              Y              Z
 ---- ---------------- ---------- -------------- -------------- --------------
    1 O                    8.0000    -0.00054505     1.51754110     0.00000000
    2 H                    1.0000     0.09453795     0.55364010     0.00000000
    3 H                    1.0000     0.90123695     1.84795810     0.00000000
    4 O                    8.0000    -0.00054505    -1.38975990     0.00000000
    5 H                    1.0000    -0.49352705    -1.71192390     0.76101400
    6 H                    1.0000    -0.49352705    -1.71192390    -0.76101400

         Total DFT energy =     -152.850880180172

                       DFT Final Molecular Orbital Analysis
                       ------------------------------------

 Vector    1  Occ=2.000000D+00  E=-1.917256D+01

 Vector    2  Occ=2.000000D+00  E=-1.909893D+01

 Vector    3  Occ=2.000000D+00  E=-1.031766D+00

 Vector    4  Occ=2.000000D+00  E=-9.611050D-01

 Vector    5  Occ=2.000000D+00  E=-5.485772D-01

 Vector    6  Occ=2.000000D+00  E=-4.862269D-01

 Vector    7  Occ=2.000000D+00  E=-4.072548D-01

 Vector    8  Occ=2.000000D+00  E=-3.411708D-01

 Vector    9  Occ=2.000000D+00  E=-3.197898D-01

 Vector   10  Occ=2.000000D+00  E=-2.589325D-01

 Vector   11  Occ=0.000000D+00  E= 4.189071D-02

 Vector   12  Occ=0.000000D+00  E= 1.169550D-01

 Vector   13  Occ=0.000000D+00  E= 1.325799D-01

 Vector   14  Occ=0.000000D+00  E= 2.507001D-01

 Vector   15  Occ=0.000000D+00  E= 7.309989D-01

 Vector   16  Occ=0.000000D+00  E= 7.814275D-01

 Vector   17  Occ=0.000000D+00  E= 8.069529D-01

 Vector   18  Occ=0.000000D+00  E= 8.400236D-01

 Vector   19  Occ=0.000000D+00  E= 8.635691D-01

 Vector   20  Occ=0.000000D+00  E= 9.184237D-01

     Multipole analysis of the density
     ---------------------------------

     L   x y z        total         alpha         beta         nuclear
     -   - - -        -----         -----         ----         -------
     0   0 0 0      0.000000    -10.000000    -10.000000     20.000000

     1   1 0 0     -0.036256     -0.018128     -0.018128      0.000000
     1   0 1 0     -1.154195     -0.577097     -0.577097      0.000000
     1   0 0 1      0.000000      0.000000      0.000000      0.000000

     2   2 0 0     -8.317493     -6.494773     -6.494773      4.672052
     2   1 1 0      4.731921     -3.717334     -3.717334     12.166589
     2   1 0 1      0.000000      0.000000      0.000000      0.000000
     2   0 2 0     -8.566491    -81.878441    -81.878441    155.190391
     2   0 1 1      0.000000      0.000000      0.000000      0.000000

  Root  1 singlet a     0.266508172 a.u. (  7.2520594 eV)
     Dipole Oscillator Strength                          0.00254
  Root  2 singlet a     0.307028628 a.u. (  8.3546776 eV)
     Dipole Oscillator Strength                          0.03791
  Root  3 singlet a     0.314083903 a.u. (  8.5466615 eV)
     Dipole Oscillator Strength                          0.00976
  Root  4 singlet a     0.345636599 a.u. (  9.4052544 eV)
     Dipole Oscillator Strength                          0.01699
  Root  5 singlet a     0.361487649 a.u. (  9.8365836 eV)
     Dipole Oscillator Strength                          0.00074
  Root  6 singlet a     0.384317601 a.u. ( 10.4578185 eV)
     Dipole Oscillator Strength                          0.00000
  Root  7 singlet a     0.393184723 a.u. ( 10.6991052 eV)
     Dipole Oscillator Strength                          0.05033
  Root  8 singlet a     0.399272240 a.u. ( 10.8647551 eV)
     Dipole Oscillator Strength                          0.15886
  Root  9 singlet a     0.417698064 a.u. ( 11.3661475 eV)
     Dipole Oscillator Strength                          0.05339
  Root 10 singlet a     0.437438540 a.u. ( 11.9033134 eV)
     Dipole Oscillator Strength                          0.00008
 Total times  cpu:       34.8s     wall:       43.4s
